+ 0.01 0 2 ping 64 ------- 1 0.0 4.0 -1 0
- 0.01 0 2 ping 64 ------- 1 0.0 4.0 -1 0
+ 0.01 1 2 ping 64 ------- 2 1.0 5.0 -1 1
- 0.01 1 2 ping 64 ------- 2 1.0 5.0 -1 1
+ 0.01 4 3 ping 64 ------- 3 4.0 0.0 -1 2
- 0.01 4 3 ping 64 ------- 3 4.0 0.0 -1 2
+ 0.01 5 3 ping 64 ------- 4 5.0 1.0 -1 3
- 0.01 5 3 ping 64 ------- 4 5.0 1.0 -1 3
+ 0.02 0 2 ping 64 ------- 1 0.0 4.0 -1 4
- 0.02 0 2 ping 64 ------- 1 0.0 4.0 -1 4
+ 0.02 1 2 ping 64 ------- 2 1.0 5.0 -1 5
- 0.02 1 2 ping 64 ------- 2 1.0 5.0 -1 5
+ 0.02 4 3 ping 64 ------- 3 4.0 0.0 -1 6
- 0.02 4 3 ping 64 ------- 3 4.0 0.0 -1 6
+ 0.02 5 3 ping 64 ------- 4 5.0 1.0 -1 7
- 0.02 5 3 ping 64 ------- 4 5.0 1.0 -1 7
r 0.020256 0 2 ping 64 ------- 1 0.0 4.0 -1 0
+ 0.020256 2 3 ping 64 ------- 1 0.0 4.0 -1 0
- 0.020256 2 3 ping 64 ------- 1 0.0 4.0 -1 0
r 0.020256 1 2 ping 64 ------- 2 1.0 5.0 -1 1
+ 0.020256 2 3 ping 64 ------- 2 1.0 5.0 -1 1
r 0.020256 4 3 ping 64 ------- 3 4.0 0.0 -1 2
+ 0.020256 3 2 ping 64 ------- 3 4.0 0.0 -1 2
- 0.020256 3 2 ping 64 ------- 3 4.0 0.0 -1 2
r 0.020256 5 3 ping 64 ------- 4 5.0 1.0 -1 3
+ 0.020256 3 2 ping 64 ------- 4 5.0 1.0 -1 3
- 0.021536 2 3 ping 64 ------- 2 1.0 5.0 -1 1
- 0.021536 3 2 ping 64 ------- 4 5.0 1.0 -1 3
+ 0.03 0 2 ping 64 ------- 1 0.0 4.0 -1 8
- 0.03 0 2 ping 64 ------- 1 0.0 4.0 -1 8
+ 0.03 1 2 ping 64 ------- 2 1.0 5.0 -1 9
- 0.03 1 2 ping 64 ------- 2 1.0 5.0 -1 9
+ 0.03 4 3 ping 64 ------- 3 4.0 0.0 -1 10
- 0.03 4 3 ping 64 ------- 3 4.0 0.0 -1 10
+ 0.03 5 3 ping 64 ------- 4 5.0 1.0 -1 11
- 0.03 5 3 ping 64 ------- 4 5.0 1.0 -1 11
r 0.030256 0 2 ping 64 ------- 1 0.0 4.0 -1 4
+ 0.030256 2 3 ping 64 ------- 1 0.0 4.0 -1 4
- 0.030256 2 3 ping 64 ------- 1 0.0 4.0 -1 4
r 0.030256 1 2 ping 64 ------- 2 1.0 5.0 -1 5
+ 0.030256 2 3 ping 64 ------- 2 1.0 5.0 -1 5
r 0.030256 4 3 ping 64 ------- 3 4.0 0.0 -1 6
+ 0.030256 3 2 ping 64 ------- 3 4.0 0.0 -1 6
- 0.030256 3 2 ping 64 ------- 3 4.0 0.0 -1 6
r 0.030256 5 3 ping 64 ------- 4 5.0 1.0 -1 7
+ 0.030256 3 2 ping 64 ------- 4 5.0 1.0 -1 7
r 0.031536 2 3 ping 64 ------- 1 0.0 4.0 -1 0
+ 0.031536 3 4 ping 64 ------- 1 0.0 4.0 -1 0
- 0.031536 3 4 ping 64 ------- 1 0.0 4.0 -1 0
r 0.031536 3 2 ping 64 ------- 3 4.0 0.0 -1 2
+ 0.031536 2 0 ping 64 ------- 3 4.0 0.0 -1 2
- 0.031536 2 0 ping 64 ------- 3 4.0 0.0 -1 2
- 0.031536 2 3 ping 64 ------- 2 1.0 5.0 -1 5
- 0.031536 3 2 ping 64 ------- 4 5.0 1.0 -1 7
r 0.032816 2 3 ping 64 ------- 2 1.0 5.0 -1 1
+ 0.032816 3 5 ping 64 ------- 2 1.0 5.0 -1 1
- 0.032816 3 5 ping 64 ------- 2 1.0 5.0 -1 1
r 0.032816 3 2 ping 64 ------- 4 5.0 1.0 -1 3
+ 0.032816 2 1 ping 64 ------- 4 5.0 1.0 -1 3
- 0.032816 2 1 ping 64 ------- 4 5.0 1.0 -1 3
+ 0.04 0 2 ping 64 ------- 1 0.0 4.0 -1 12
- 0.04 0 2 ping 64 ------- 1 0.0 4.0 -1 12
+ 0.04 1 2 ping 64 ------- 2 1.0 5.0 -1 13
- 0.04 1 2 ping 64 ------- 2 1.0 5.0 -1 13
+ 0.04 4 3 ping 64 ------- 3 4.0 0.0 -1 14
- 0.04 4 3 ping 64 ------- 3 4.0 0.0 -1 14
+ 0.04 5 3 ping 64 ------- 4 5.0 1.0 -1 15
- 0.04 5 3 ping 64 ------- 4 5.0 1.0 -1 15
r 0.040256 0 2 ping 64 ------- 1 0.0 4.0 -1 8
+ 0.040256 2 3 ping 64 ------- 1 0.0 4.0 -1 8
- 0.040256 2 3 ping 64 ------- 1 0.0 4.0 -1 8
r 0.040256 1 2 ping 64 ------- 2 1.0 5.0 -1 9
+ 0.040256 2 3 ping 64 ------- 2 1.0 5.0 -1 9
r 0.040256 4 3 ping 64 ------- 3 4.0 0.0 -1 10
+ 0.040256 3 2 ping 64 ------- 3 4.0 0.0 -1 10
- 0.040256 3 2 ping 64 ------- 3 4.0 0.0 -1 10
r 0.040256 5 3 ping 64 ------- 4 5.0 1.0 -1 11
+ 0.040256 3 2 ping 64 ------- 4 5.0 1.0 -1 11
r 0.041536 2 3 ping 64 ------- 1 0.0 4.0 -1 4
+ 0.041536 3 4 ping 64 ------- 1 0.0 4.0 -1 4
- 0.041536 3 4 ping 64 ------- 1 0.0 4.0 -1 4
r 0.041536 3 2 ping 64 ------- 3 4.0 0.0 -1 6
+ 0.041536 2 0 ping 64 ------- 3 4.0 0.0 -1 6
- 0.041536 2 0 ping 64 ------- 3 4.0 0.0 -1 6
- 0.041536 2 3 ping 64 ------- 2 1.0 5.0 -1 9
- 0.041536 3 2 ping 64 ------- 4 5.0 1.0 -1 11
r 0.041792 3 4 ping 64 ------- 1 0.0 4.0 -1 0
+ 0.041792 4 3 ping 64 ------- 3 4.0 0.0 -1 16
- 0.041792 4 3 ping 64 ------- 3 4.0 0.0 -1 16
r 0.041792 2 0 ping 64 ------- 3 4.0 0.0 -1 2
+ 0.041792 0 2 ping 64 ------- 1 0.0 4.0 -1 17
- 0.041792 0 2 ping 64 ------- 1 0.0 4.0 -1 17
r 0.042816 2 3 ping 64 ------- 2 1.0 5.0 -1 5
+ 0.042816 3 5 ping 64 ------- 2 1.0 5.0 -1 5
- 0.042816 3 5 ping 64 ------- 2 1.0 5.0 -1 5
r 0.042816 3 2 ping 64 ------- 4 5.0 1.0 -1 7
+ 0.042816 2 1 ping 64 ------- 4 5.0 1.0 -1 7
- 0.042816 2 1 ping 64 ------- 4 5.0 1.0 -1 7
r 0.043072 3 5 ping 64 ------- 2 1.0 5.0 -1 1
+ 0.043072 5 3 ping 64 ------- 4 5.0 1.0 -1 18
- 0.043072 5 3 ping 64 ------- 4 5.0 1.0 -1 18
r 0.043072 2 1 ping 64 ------- 4 5.0 1.0 -1 3
+ 0.043072 1 2 ping 64 ------- 2 1.0 5.0 -1 19
- 0.043072 1 2 ping 64 ------- 2 1.0 5.0 -1 19
+ 0.05 0 2 ping 64 ------- 1 0.0 4.0 -1 20
- 0.05 0 2 ping 64 ------- 1 0.0 4.0 -1 20
+ 0.05 1 2 ping 64 ------- 2 1.0 5.0 -1 21
- 0.05 1 2 ping 64 ------- 2 1.0 5.0 -1 21
+ 0.05 4 3 ping 64 ------- 3 4.0 0.0 -1 22
- 0.05 4 3 ping 64 ------- 3 4.0 0.0 -1 22
+ 0.05 5 3 ping 64 ------- 4 5.0 1.0 -1 23
- 0.05 5 3 ping 64 ------- 4 5.0 1.0 -1 23
r 0.050256 0 2 ping 64 ------- 1 0.0 4.0 -1 12
+ 0.050256 2 3 ping 64 ------- 1 0.0 4.0 -1 12
- 0.050256 2 3 ping 64 ------- 1 0.0 4.0 -1 12
r 0.050256 1 2 ping 64 ------- 2 1.0 5.0 -1 13
+ 0.050256 2 3 ping 64 ------- 2 1.0 5.0 -1 13
r 0.050256 4 3 ping 64 ------- 3 4.0 0.0 -1 14
+ 0.050256 3 2 ping 64 ------- 3 4.0 0.0 -1 14
- 0.050256 3 2 ping 64 ------- 3 4.0 0.0 -1 14
r 0.050256 5 3 ping 64 ------- 4 5.0 1.0 -1 15
+ 0.050256 3 2 ping 64 ------- 4 5.0 1.0 -1 15
r 0.051536 2 3 ping 64 ------- 1 0.0 4.0 -1 8
+ 0.051536 3 4 ping 64 ------- 1 0.0 4.0 -1 8
- 0.051536 3 4 ping 64 ------- 1 0.0 4.0 -1 8
r 0.051536 3 2 ping 64 ------- 3 4.0 0.0 -1 10
+ 0.051536 2 0 ping 64 ------- 3 4.0 0.0 -1 10
- 0.051536 2 0 ping 64 ------- 3 4.0 0.0 -1 10
- 0.051536 2 3 ping 64 ------- 2 1.0 5.0 -1 13
- 0.051536 3 2 ping 64 ------- 4 5.0 1.0 -1 15
r 0.051792 3 4 ping 64 ------- 1 0.0 4.0 -1 4
+ 0.051792 4 3 ping 64 ------- 3 4.0 0.0 -1 24
- 0.051792 4 3 ping 64 ------- 3 4.0 0.0 -1 24
r 0.051792 2 0 ping 64 ------- 3 4.0 0.0 -1 6
+ 0.051792 0 2 ping 64 ------- 1 0.0 4.0 -1 25
- 0.051792 0 2 ping 64 ------- 1 0.0 4.0 -1 25
r 0.052048 4 3 ping 64 ------- 3 4.0 0.0 -1 16
+ 0.052048 3 2 ping 64 ------- 3 4.0 0.0 -1 16
r 0.052048 0 2 ping 64 ------- 1 0.0 4.0 -1 17
+ 0.052048 2 3 ping 64 ------- 1 0.0 4.0 -1 17
r 0.052816 2 3 ping 64 ------- 2 1.0 5.0 -1 9
+ 0.052816 3 5 ping 64 ------- 2 1.0 5.0 -1 9
- 0.052816 3 5 ping 64 ------- 2 1.0 5.0 -1 9
r 0.052816 3 2 ping 64 ------- 4 5.0 1.0 -1 11
+ 0.052816 2 1 ping 64 ------- 4 5.0 1.0 -1 11
- 0.052816 2 1 ping 64 ------- 4 5.0 1.0 -1 11
- 0.052816 2 3 ping 64 ------- 1 0.0 4.0 -1 17
- 0.052816 3 2 ping 64 ------- 3 4.0 0.0 -1 16
r 0.053072 3 5 ping 64 ------- 2 1.0 5.0 -1 5
+ 0.053072 5 3 ping 64 ------- 4 5.0 1.0 -1 26
- 0.053072 5 3 ping 64 ------- 4 5.0 1.0 -1 26
r 0.053072 2 1 ping 64 ------- 4 5.0 1.0 -1 7
+ 0.053072 1 2 ping 64 ------- 2 1.0 5.0 -1 27
- 0.053072 1 2 ping 64 ------- 2 1.0 5.0 -1 27
r 0.053328 5 3 ping 64 ------- 4 5.0 1.0 -1 18
+ 0.053328 3 2 ping 64 ------- 4 5.0 1.0 -1 18
r 0.053328 1 2 ping 64 ------- 2 1.0 5.0 -1 19
+ 0.053328 2 3 ping 64 ------- 2 1.0 5.0 -1 19
- 0.054096 2 3 ping 64 ------- 2 1.0 5.0 -1 19
- 0.054096 3 2 ping 64 ------- 4 5.0 1.0 -1 18
+ 0.06 0 2 ping 64 ------- 1 0.0 4.0 -1 28
- 0.06 0 2 ping 64 ------- 1 0.0 4.0 -1 28
+ 0.06 1 2 ping 64 ------- 2 1.0 5.0 -1 29
- 0.06 1 2 ping 64 ------- 2 1.0 5.0 -1 29
+ 0.06 4 3 ping 64 ------- 3 4.0 0.0 -1 30
- 0.06 4 3 ping 64 ------- 3 4.0 0.0 -1 30
+ 0.06 5 3 ping 64 ------- 4 5.0 1.0 -1 31
- 0.06 5 3 ping 64 ------- 4 5.0 1.0 -1 31
r 0.060256 0 2 ping 64 ------- 1 0.0 4.0 -1 20
+ 0.060256 2 3 ping 64 ------- 1 0.0 4.0 -1 20
- 0.060256 2 3 ping 64 ------- 1 0.0 4.0 -1 20
r 0.060256 1 2 ping 64 ------- 2 1.0 5.0 -1 21
+ 0.060256 2 3 ping 64 ------- 2 1.0 5.0 -1 21
r 0.060256 4 3 ping 64 ------- 3 4.0 0.0 -1 22
+ 0.060256 3 2 ping 64 ------- 3 4.0 0.0 -1 22
- 0.060256 3 2 ping 64 ------- 3 4.0 0.0 -1 22
r 0.060256 5 3 ping 64 ------- 4 5.0 1.0 -1 23
+ 0.060256 3 2 ping 64 ------- 4 5.0 1.0 -1 23
r 0.061536 2 3 ping 64 ------- 1 0.0 4.0 -1 12
+ 0.061536 3 4 ping 64 ------- 1 0.0 4.0 -1 12
- 0.061536 3 4 ping 64 ------- 1 0.0 4.0 -1 12
r 0.061536 3 2 ping 64 ------- 3 4.0 0.0 -1 14
+ 0.061536 2 0 ping 64 ------- 3 4.0 0.0 -1 14
- 0.061536 2 0 ping 64 ------- 3 4.0 0.0 -1 14
- 0.061536 2 3 ping 64 ------- 2 1.0 5.0 -1 21
- 0.061536 3 2 ping 64 ------- 4 5.0 1.0 -1 23
r 0.061792 3 4 ping 64 ------- 1 0.0 4.0 -1 8
+ 0.061792 4 3 ping 64 ------- 3 4.0 0.0 -1 32
- 0.061792 4 3 ping 64 ------- 3 4.0 0.0 -1 32
r 0.061792 2 0 ping 64 ------- 3 4.0 0.0 -1 10
+ 0.061792 0 2 ping 64 ------- 1 0.0 4.0 -1 33
- 0.061792 0 2 ping 64 ------- 1 0.0 4.0 -1 33
r 0.062048 4 3 ping 64 ------- 3 4.0 0.0 -1 24
+ 0.062048 3 2 ping 64 ------- 3 4.0 0.0 -1 24
r 0.062048 0 2 ping 64 ------- 1 0.0 4.0 -1 25
+ 0.062048 2 3 ping 64 ------- 1 0.0 4.0 -1 25
r 0.062816 2 3 ping 64 ------- 2 1.0 5.0 -1 13
+ 0.062816 3 5 ping 64 ------- 2 1.0 5.0 -1 13
- 0.062816 3 5 ping 64 ------- 2 1.0 5.0 -1 13
r 0.062816 3 2 ping 64 ------- 4 5.0 1.0 -1 15
+ 0.062816 2 1 ping 64 ------- 4 5.0 1.0 -1 15
- 0.062816 2 1 ping 64 ------- 4 5.0 1.0 -1 15
- 0.062816 2 3 ping 64 ------- 1 0.0 4.0 -1 25
- 0.062816 3 2 ping 64 ------- 3 4.0 0.0 -1 24
r 0.063072 3 5 ping 64 ------- 2 1.0 5.0 -1 9
+ 0.063072 5 3 ping 64 ------- 4 5.0 1.0 -1 34
- 0.063072 5 3 ping 64 ------- 4 5.0 1.0 -1 34
r 0.063072 2 1 ping 64 ------- 4 5.0 1.0 -1 11
+ 0.063072 1 2 ping 64 ------- 2 1.0 5.0 -1 35
- 0.063072 1 2 ping 64 ------- 2 1.0 5.0 -1 35
r 0.063328 5 3 ping 64 ------- 4 5.0 1.0 -1 26
+ 0.063328 3 2 ping 64 ------- 4 5.0 1.0 -1 26
r 0.063328 1 2 ping 64 ------- 2 1.0 5.0 -1 27
+ 0.063328 2 3 ping 64 ------- 2 1.0 5.0 -1 27
r 0.064096 2 3 ping 64 ------- 1 0.0 4.0 -1 17
+ 0.064096 3 4 ping 64 ------- 1 0.0 4.0 -1 17
- 0.064096 3 4 ping 64 ------- 1 0.0 4.0 -1 17
r 0.064096 3 2 ping 64 ------- 3 4.0 0.0 -1 16
+ 0.064096 2 0 ping 64 ------- 3 4.0 0.0 -1 16
- 0.064096 2 0 ping 64 ------- 3 4.0 0.0 -1 16
- 0.064096 2 3 ping 64 ------- 2 1.0 5.0 -1 27
- 0.064096 3 2 ping 64 ------- 4 5.0 1.0 -1 26
r 0.065376 2 3 ping 64 ------- 2 1.0 5.0 -1 19
+ 0.065376 3 5 ping 64 ------- 2 1.0 5.0 -1 19
- 0.065376 3 5 ping 64 ------- 2 1.0 5.0 -1 19
r 0.065376 3 2 ping 64 ------- 4 5.0 1.0 -1 18
+ 0.065376 2 1 ping 64 ------- 4 5.0 1.0 -1 18
- 0.065376 2 1 ping 64 ------- 4 5.0 1.0 -1 18
+ 0.07 0 2 ping 64 ------- 1 0.0 4.0 -1 36
- 0.07 0 2 ping 64 ------- 1 0.0 4.0 -1 36
+ 0.07 1 2 ping 64 ------- 2 1.0 5.0 -1 37
- 0.07 1 2 ping 64 ------- 2 1.0 5.0 -1 37
+ 0.07 4 3 ping 64 ------- 3 4.0 0.0 -1 38
- 0.07 4 3 ping 64 ------- 3 4.0 0.0 -1 38
+ 0.07 5 3 ping 64 ------- 4 5.0 1.0 -1 39
- 0.07 5 3 ping 64 ------- 4 5.0 1.0 -1 39
r 0.070256 0 2 ping 64 ------- 1 0.0 4.0 -1 28
+ 0.070256 2 3 ping 64 ------- 1 0.0 4.0 -1 28
- 0.070256 2 3 ping 64 ------- 1 0.0 4.0 -1 28
r 0.070256 1 2 ping 64 ------- 2 1.0 5.0 -1 29
+ 0.070256 2 3 ping 64 ------- 2 1.0 5.0 -1 29
r 0.070256 4 3 ping 64 ------- 3 4.0 0.0 -1 30
+ 0.070256 3 2 ping 64 ------- 3 4.0 0.0 -1 30
- 0.070256 3 2 ping 64 ------- 3 4.0 0.0 -1 30
r 0.070256 5 3 ping 64 ------- 4 5.0 1.0 -1 31
+ 0.070256 3 2 ping 64 ------- 4 5.0 1.0 -1 31
r 0.071536 2 3 ping 64 ------- 1 0.0 4.0 -1 20
+ 0.071536 3 4 ping 64 ------- 1 0.0 4.0 -1 20
- 0.071536 3 4 ping 64 ------- 1 0.0 4.0 -1 20
r 0.071536 3 2 ping 64 ------- 3 4.0 0.0 -1 22
+ 0.071536 2 0 ping 64 ------- 3 4.0 0.0 -1 22
- 0.071536 2 0 ping 64 ------- 3 4.0 0.0 -1 22
- 0.071536 2 3 ping 64 ------- 2 1.0 5.0 -1 29
- 0.071536 3 2 ping 64 ------- 4 5.0 1.0 -1 31
r 0.071792 3 4 ping 64 ------- 1 0.0 4.0 -1 12
+ 0.071792 4 3 ping 64 ------- 3 4.0 0.0 -1 40
- 0.071792 4 3 ping 64 ------- 3 4.0 0.0 -1 40
r 0.071792 2 0 ping 64 ------- 3 4.0 0.0 -1 14
+ 0.071792 0 2 ping 64 ------- 1 0.0 4.0 -1 41
- 0.071792 0 2 ping 64 ------- 1 0.0 4.0 -1 41
r 0.072048 4 3 ping 64 ------- 3 4.0 0.0 -1 32
+ 0.072048 3 2 ping 64 ------- 3 4.0 0.0 -1 32
r 0.072048 0 2 ping 64 ------- 1 0.0 4.0 -1 33
+ 0.072048 2 3 ping 64 ------- 1 0.0 4.0 -1 33
r 0.072816 2 3 ping 64 ------- 2 1.0 5.0 -1 21
+ 0.072816 3 5 ping 64 ------- 2 1.0 5.0 -1 21
- 0.072816 3 5 ping 64 ------- 2 1.0 5.0 -1 21
r 0.072816 3 2 ping 64 ------- 4 5.0 1.0 -1 23
+ 0.072816 2 1 ping 64 ------- 4 5.0 1.0 -1 23
- 0.072816 2 1 ping 64 ------- 4 5.0 1.0 -1 23
- 0.072816 2 3 ping 64 ------- 1 0.0 4.0 -1 33
- 0.072816 3 2 ping 64 ------- 3 4.0 0.0 -1 32
r 0.073072 3 5 ping 64 ------- 2 1.0 5.0 -1 13
+ 0.073072 5 3 ping 64 ------- 4 5.0 1.0 -1 42
- 0.073072 5 3 ping 64 ------- 4 5.0 1.0 -1 42
r 0.073072 2 1 ping 64 ------- 4 5.0 1.0 -1 15
+ 0.073072 1 2 ping 64 ------- 2 1.0 5.0 -1 43
- 0.073072 1 2 ping 64 ------- 2 1.0 5.0 -1 43
r 0.073328 5 3 ping 64 ------- 4 5.0 1.0 -1 34
+ 0.073328 3 2 ping 64 ------- 4 5.0 1.0 -1 34
r 0.073328 1 2 ping 64 ------- 2 1.0 5.0 -1 35
+ 0.073328 2 3 ping 64 ------- 2 1.0 5.0 -1 35
r 0.074096 2 3 ping 64 ------- 1 0.0 4.0 -1 25
+ 0.074096 3 4 ping 64 ------- 1 0.0 4.0 -1 25
- 0.074096 3 4 ping 64 ------- 1 0.0 4.0 -1 25
r 0.074096 3 2 ping 64 ------- 3 4.0 0.0 -1 24
+ 0.074096 2 0 ping 64 ------- 3 4.0 0.0 -1 24
- 0.074096 2 0 ping 64 ------- 3 4.0 0.0 -1 24
- 0.074096 2 3 ping 64 ------- 2 1.0 5.0 -1 35
- 0.074096 3 2 ping 64 ------- 4 5.0 1.0 -1 34
r 0.074352 3 4 ping 64 ------- 1 0.0 4.0 -1 17
r 0.074352 2 0 ping 64 ------- 3 4.0 0.0 -1 16
r 0.075376 2 3 ping 64 ------- 2 1.0 5.0 -1 27
+ 0.075376 3 5 ping 64 ------- 2 1.0 5.0 -1 27
- 0.075376 3 5 ping 64 ------- 2 1.0 5.0 -1 27
r 0.075376 3 2 ping 64 ------- 4 5.0 1.0 -1 26
+ 0.075376 2 1 ping 64 ------- 4 5.0 1.0 -1 26
- 0.075376 2 1 ping 64 ------- 4 5.0 1.0 -1 26
r 0.075632 3 5 ping 64 ------- 2 1.0 5.0 -1 19
r 0.075632 2 1 ping 64 ------- 4 5.0 1.0 -1 18
+ 0.08 0 2 ping 64 ------- 1 0.0 4.0 -1 44
- 0.08 0 2 ping 64 ------- 1 0.0 4.0 -1 44
+ 0.08 1 2 ping 64 ------- 2 1.0 5.0 -1 45
- 0.08 1 2 ping 64 ------- 2 1.0 5.0 -1 45
+ 0.08 4 3 ping 64 ------- 3 4.0 0.0 -1 46
- 0.08 4 3 ping 64 ------- 3 4.0 0.0 -1 46
+ 0.08 5 3 ping 64 ------- 4 5.0 1.0 -1 47
- 0.08 5 3 ping 64 ------- 4 5.0 1.0 -1 47
r 0.080256 0 2 ping 64 ------- 1 0.0 4.0 -1 36
+ 0.080256 2 3 ping 64 ------- 1 0.0 4.0 -1 36
- 0.080256 2 3 ping 64 ------- 1 0.0 4.0 -1 36
r 0.080256 1 2 ping 64 ------- 2 1.0 5.0 -1 37
+ 0.080256 2 3 ping 64 ------- 2 1.0 5.0 -1 37
r 0.080256 4 3 ping 64 ------- 3 4.0 0.0 -1 38
+ 0.080256 3 2 ping 64 ------- 3 4.0 0.0 -1 38
- 0.080256 3 2 ping 64 ------- 3 4.0 0.0 -1 38
r 0.080256 5 3 ping 64 ------- 4 5.0 1.0 -1 39
+ 0.080256 3 2 ping 64 ------- 4 5.0 1.0 -1 39
r 0.081536 2 3 ping 64 ------- 1 0.0 4.0 -1 28
+ 0.081536 3 4 ping 64 ------- 1 0.0 4.0 -1 28
- 0.081536 3 4 ping 64 ------- 1 0.0 4.0 -1 28
r 0.081536 3 2 ping 64 ------- 3 4.0 0.0 -1 30
+ 0.081536 2 0 ping 64 ------- 3 4.0 0.0 -1 30
- 0.081536 2 0 ping 64 ------- 3 4.0 0.0 -1 30
- 0.081536 2 3 ping 64 ------- 2 1.0 5.0 -1 37
- 0.081536 3 2 ping 64 ------- 4 5.0 1.0 -1 39
r 0.081792 3 4 ping 64 ------- 1 0.0 4.0 -1 20
+ 0.081792 4 3 ping 64 ------- 3 4.0 0.0 -1 48
- 0.081792 4 3 ping 64 ------- 3 4.0 0.0 -1 48
r 0.081792 2 0 ping 64 ------- 3 4.0 0.0 -1 22
+ 0.081792 0 2 ping 64 ------- 1 0.0 4.0 -1 49
- 0.081792 0 2 ping 64 ------- 1 0.0 4.0 -1 49
r 0.082048 4 3 ping 64 ------- 3 4.0 0.0 -1 40
+ 0.082048 3 2 ping 64 ------- 3 4.0 0.0 -1 40
r 0.082048 0 2 ping 64 ------- 1 0.0 4.0 -1 41
+ 0.082048 2 3 ping 64 ------- 1 0.0 4.0 -1 41
r 0.082816 2 3 ping 64 ------- 2 1.0 5.0 -1 29
+ 0.082816 3 5 ping 64 ------- 2 1.0 5.0 -1 29
- 0.082816 3 5 ping 64 ------- 2 1.0 5.0 -1 29
r 0.082816 3 2 ping 64 ------- 4 5.0 1.0 -1 31
+ 0.082816 2 1 ping 64 ------- 4 5.0 1.0 -1 31
- 0.082816 2 1 ping 64 ------- 4 5.0 1.0 -1 31
- 0.082816 2 3 ping 64 ------- 1 0.0 4.0 -1 41
- 0.082816 3 2 ping 64 ------- 3 4.0 0.0 -1 40
r 0.083072 3 5 ping 64 ------- 2 1.0 5.0 -1 21
+ 0.083072 5 3 ping 64 ------- 4 5.0 1.0 -1 50
- 0.083072 5 3 ping 64 ------- 4 5.0 1.0 -1 50
r 0.083072 2 1 ping 64 ------- 4 5.0 1.0 -1 23
+ 0.083072 1 2 ping 64 ------- 2 1.0 5.0 -1 51
- 0.083072 1 2 ping 64 ------- 2 1.0 5.0 -1 51
r 0.083328 5 3 ping 64 ------- 4 5.0 1.0 -1 42
+ 0.083328 3 2 ping 64 ------- 4 5.0 1.0 -1 42
r 0.083328 1 2 ping 64 ------- 2 1.0 5.0 -1 43
+ 0.083328 2 3 ping 64 ------- 2 1.0 5.0 -1 43
r 0.084096 2 3 ping 64 ------- 1 0.0 4.0 -1 33
+ 0.084096 3 4 ping 64 ------- 1 0.0 4.0 -1 33
- 0.084096 3 4 ping 64 ------- 1 0.0 4.0 -1 33
r 0.084096 3 2 ping 64 ------- 3 4.0 0.0 -1 32
+ 0.084096 2 0 ping 64 ------- 3 4.0 0.0 -1 32
- 0.084096 2 0 ping 64 ------- 3 4.0 0.0 -1 32
- 0.084096 2 3 ping 64 ------- 2 1.0 5.0 -1 43
- 0.084096 3 2 ping 64 ------- 4 5.0 1.0 -1 42
r 0.084352 3 4 ping 64 ------- 1 0.0 4.0 -1 25
r 0.084352 2 0 ping 64 ------- 3 4.0 0.0 -1 24
r 0.085376 2 3 ping 64 ------- 2 1.0 5.0 -1 35
+ 0.085376 3 5 ping 64 ------- 2 1.0 5.0 -1 35
- 0.085376 3 5 ping 64 ------- 2 1.0 5.0 -1 35
r 0.085376 3 2 ping 64 ------- 4 5.0 1.0 -1 34
+ 0.085376 2 1 ping 64 ------- 4 5.0 1.0 -1 34
- 0.085376 2 1 ping 64 ------- 4 5.0 1.0 -1 34
r 0.085632 3 5 ping 64 ------- 2 1.0 5.0 -1 27
r 0.085632 2 1 ping 64 ------- 4 5.0 1.0 -1 26
+ 0.09 0 2 ping 64 ------- 1 0.0 4.0 -1 52
- 0.09 0 2 ping 64 ------- 1 0.0 4.0 -1 52
+ 0.09 1 2 ping 64 ------- 2 1.0 5.0 -1 53
- 0.09 1 2 ping 64 ------- 2 1.0 5.0 -1 53
+ 0.09 4 3 ping 64 ------- 3 4.0 0.0 -1 54
- 0.09 4 3 ping 64 ------- 3 4.0 0.0 -1 54
+ 0.09 5 3 ping 64 ------- 4 5.0 1.0 -1 55
- 0.09 5 3 ping 64 ------- 4 5.0 1.0 -1 55
r 0.090256 0 2 ping 64 ------- 1 0.0 4.0 -1 44
+ 0.090256 2 3 ping 64 ------- 1 0.0 4.0 -1 44
- 0.090256 2 3 ping 64 ------- 1 0.0 4.0 -1 44
r 0.090256 1 2 ping 64 ------- 2 1.0 5.0 -1 45
+ 0.090256 2 3 ping 64 ------- 2 1.0 5.0 -1 45
r 0.090256 4 3 ping 64 ------- 3 4.0 0.0 -1 46
+ 0.090256 3 2 ping 64 ------- 3 4.0 0.0 -1 46
- 0.090256 3 2 ping 64 ------- 3 4.0 0.0 -1 46
r 0.090256 5 3 ping 64 ------- 4 5.0 1.0 -1 47
+ 0.090256 3 2 ping 64 ------- 4 5.0 1.0 -1 47
r 0.091536 2 3 ping 64 ------- 1 0.0 4.0 -1 36
+ 0.091536 3 4 ping 64 ------- 1 0.0 4.0 -1 36
- 0.091536 3 4 ping 64 ------- 1 0.0 4.0 -1 36
r 0.091536 3 2 ping 64 ------- 3 4.0 0.0 -1 38
+ 0.091536 2 0 ping 64 ------- 3 4.0 0.0 -1 38
- 0.091536 2 0 ping 64 ------- 3 4.0 0.0 -1 38
- 0.091536 2 3 ping 64 ------- 2 1.0 5.0 -1 45
- 0.091536 3 2 ping 64 ------- 4 5.0 1.0 -1 47
r 0.091792 3 4 ping 64 ------- 1 0.0 4.0 -1 28
+ 0.091792 4 3 ping 64 ------- 3 4.0 0.0 -1 56
- 0.091792 4 3 ping 64 ------- 3 4.0 0.0 -1 56
r 0.091792 2 0 ping 64 ------- 3 4.0 0.0 -1 30
+ 0.091792 0 2 ping 64 ------- 1 0.0 4.0 -1 57
- 0.091792 0 2 ping 64 ------- 1 0.0 4.0 -1 57
r 0.092048 4 3 ping 64 ------- 3 4.0 0.0 -1 48
+ 0.092048 3 2 ping 64 ------- 3 4.0 0.0 -1 48
r 0.092048 0 2 ping 64 ------- 1 0.0 4.0 -1 49
+ 0.092048 2 3 ping 64 ------- 1 0.0 4.0 -1 49
r 0.092816 2 3 ping 64 ------- 2 1.0 5.0 -1 37
+ 0.092816 3 5 ping 64 ------- 2 1.0 5.0 -1 37
- 0.092816 3 5 ping 64 ------- 2 1.0 5.0 -1 37
r 0.092816 3 2 ping 64 ------- 4 5.0 1.0 -1 39
+ 0.092816 2 1 ping 64 ------- 4 5.0 1.0 -1 39
- 0.092816 2 1 ping 64 ------- 4 5.0 1.0 -1 39
- 0.092816 2 3 ping 64 ------- 1 0.0 4.0 -1 49
- 0.092816 3 2 ping 64 ------- 3 4.0 0.0 -1 48
r 0.093072 3 5 ping 64 ------- 2 1.0 5.0 -1 29
+ 0.093072 5 3 ping 64 ------- 4 5.0 1.0 -1 58
- 0.093072 5 3 ping 64 ------- 4 5.0 1.0 -1 58
r 0.093072 2 1 ping 64 ------- 4 5.0 1.0 -1 31
+ 0.093072 1 2 ping 64 ------- 2 1.0 5.0 -1 59
- 0.093072 1 2 ping 64 ------- 2 1.0 5.0 -1 59
r 0.093328 5 3 ping 64 ------- 4 5.0 1.0 -1 50
+ 0.093328 3 2 ping 64 ------- 4 5.0 1.0 -1 50
r 0.093328 1 2 ping 64 ------- 2 1.0 5.0 -1 51
+ 0.093328 2 3 ping 64 ------- 2 1.0 5.0 -1 51
r 0.094096 2 3 ping 64 ------- 1 0.0 4.0 -1 41
+ 0.094096 3 4 ping 64 ------- 1 0.0 4.0 -1 41
- 0.094096 3 4 ping 64 ------- 1 0.0 4.0 -1 41
r 0.094096 3 2 ping 64 ------- 3 4.0 0.0 -1 40
+ 0.094096 2 0 ping 64 ------- 3 4.0 0.0 -1 40
- 0.094096 2 0 ping 64 ------- 3 4.0 0.0 -1 40
- 0.094096 2 3 ping 64 ------- 2 1.0 5.0 -1 51
- 0.094096 3 2 ping 64 ------- 4 5.0 1.0 -1 50
r 0.094352 3 4 ping 64 ------- 1 0.0 4.0 -1 33
r 0.094352 2 0 ping 64 ------- 3 4.0 0.0 -1 32
r 0.095376 2 3 ping 64 ------- 2 1.0 5.0 -1 43
+ 0.095376 3 5 ping 64 ------- 2 1.0 5.0 -1 43
- 0.095376 3 5 ping 64 ------- 2 1.0 5.0 -1 43
r 0.095376 3 2 ping 64 ------- 4 5.0 1.0 -1 42
+ 0.095376 2 1 ping 64 ------- 4 5.0 1.0 -1 42
- 0.095376 2 1 ping 64 ------- 4 5.0 1.0 -1 42
r 0.095632 3 5 ping 64 ------- 2 1.0 5.0 -1 35
r 0.095632 2 1 ping 64 ------- 4 5.0 1.0 -1 34
+ 0.1 0 2 ping 64 ------- 1 0.0 4.0 -1 60
- 0.1 0 2 ping 64 ------- 1 0.0 4.0 -1 60
+ 0.1 1 2 ping 64 ------- 2 1.0 5.0 -1 61
- 0.1 1 2 ping 64 ------- 2 1.0 5.0 -1 61
+ 0.1 4 3 ping 64 ------- 3 4.0 0.0 -1 62
- 0.1 4 3 ping 64 ------- 3 4.0 0.0 -1 62
+ 0.1 5 3 ping 64 ------- 4 5.0 1.0 -1 63
- 0.1 5 3 ping 64 ------- 4 5.0 1.0 -1 63
r 0.100256 0 2 ping 64 ------- 1 0.0 4.0 -1 52
+ 0.100256 2 3 ping 64 ------- 1 0.0 4.0 -1 52
- 0.100256 2 3 ping 64 ------- 1 0.0 4.0 -1 52
r 0.100256 1 2 ping 64 ------- 2 1.0 5.0 -1 53
+ 0.100256 2 3 ping 64 ------- 2 1.0 5.0 -1 53
r 0.100256 4 3 ping 64 ------- 3 4.0 0.0 -1 54
+ 0.100256 3 2 ping 64 ------- 3 4.0 0.0 -1 54
- 0.100256 3 2 ping 64 ------- 3 4.0 0.0 -1 54
r 0.100256 5 3 ping 64 ------- 4 5.0 1.0 -1 55
+ 0.100256 3 2 ping 64 ------- 4 5.0 1.0 -1 55
r 0.101536 2 3 ping 64 ------- 1 0.0 4.0 -1 44
+ 0.101536 3 4 ping 64 ------- 1 0.0 4.0 -1 44
- 0.101536 3 4 ping 64 ------- 1 0.0 4.0 -1 44
r 0.101536 3 2 ping 64 ------- 3 4.0 0.0 -1 46
+ 0.101536 2 0 ping 64 ------- 3 4.0 0.0 -1 46
- 0.101536 2 0 ping 64 ------- 3 4.0 0.0 -1 46
- 0.101536 2 3 ping 64 ------- 2 1.0 5.0 -1 53
- 0.101536 3 2 ping 64 ------- 4 5.0 1.0 -1 55
r 0.101792 3 4 ping 64 ------- 1 0.0 4.0 -1 36
+ 0.101792 4 3 ping 64 ------- 3 4.0 0.0 -1 64
- 0.101792 4 3 ping 64 ------- 3 4.0 0.0 -1 64
r 0.101792 2 0 ping 64 ------- 3 4.0 0.0 -1 38
+ 0.101792 0 2 ping 64 ------- 1 0.0 4.0 -1 65
- 0.101792 0 2 ping 64 ------- 1 0.0 4.0 -1 65
r 0.102048 4 3 ping 64 ------- 3 4.0 0.0 -1 56
+ 0.102048 3 2 ping 64 ------- 3 4.0 0.0 -1 56
r 0.102048 0 2 ping 64 ------- 1 0.0 4.0 -1 57
+ 0.102048 2 3 ping 64 ------- 1 0.0 4.0 -1 57
r 0.102816 2 3 ping 64 ------- 2 1.0 5.0 -1 45
+ 0.102816 3 5 ping 64 ------- 2 1.0 5.0 -1 45
- 0.102816 3 5 ping 64 ------- 2 1.0 5.0 -1 45
r 0.102816 3 2 ping 64 ------- 4 5.0 1.0 -1 47
+ 0.102816 2 1 ping 64 ------- 4 5.0 1.0 -1 47
- 0.102816 2 1 ping 64 ------- 4 5.0 1.0 -1 47
- 0.102816 2 3 ping 64 ------- 1 0.0 4.0 -1 57
- 0.102816 3 2 ping 64 ------- 3 4.0 0.0 -1 56
r 0.103072 3 5 ping 64 ------- 2 1.0 5.0 -1 37
+ 0.103072 5 3 ping 64 ------- 4 5.0 1.0 -1 66
- 0.103072 5 3 ping 64 ------- 4 5.0 1.0 -1 66
r 0.103072 2 1 ping 64 ------- 4 5.0 1.0 -1 39
+ 0.103072 1 2 ping 64 ------- 2 1.0 5.0 -1 67
- 0.103072 1 2 ping 64 ------- 2 1.0 5.0 -1 67
r 0.103328 5 3 ping 64 ------- 4 5.0 1.0 -1 58
+ 0.103328 3 2 ping 64 ------- 4 5.0 1.0 -1 58
r 0.103328 1 2 ping 64 ------- 2 1.0 5.0 -1 59
+ 0.103328 2 3 ping 64 ------- 2 1.0 5.0 -1 59
r 0.104096 2 3 ping 64 ------- 1 0.0 4.0 -1 49
+ 0.104096 3 4 ping 64 ------- 1 0.0 4.0 -1 49
- 0.104096 3 4 ping 64 ------- 1 0.0 4.0 -1 49
r 0.104096 3 2 ping 64 ------- 3 4.0 0.0 -1 48
+ 0.104096 2 0 ping 64 ------- 3 4.0 0.0 -1 48
- 0.104096 2 0 ping 64 ------- 3 4.0 0.0 -1 48
- 0.104096 2 3 ping 64 ------- 2 1.0 5.0 -1 59
- 0.104096 3 2 ping 64 ------- 4 5.0 1.0 -1 58
r 0.104352 3 4 ping 64 ------- 1 0.0 4.0 -1 41
r 0.104352 2 0 ping 64 ------- 3 4.0 0.0 -1 40
r 0.105376 2 3 ping 64 ------- 2 1.0 5.0 -1 51
+ 0.105376 3 5 ping 64 ------- 2 1.0 5.0 -1 51
- 0.105376 3 5 ping 64 ------- 2 1.0 5.0 -1 51
r 0.105376 3 2 ping 64 ------- 4 5.0 1.0 -1 50
+ 0.105376 2 1 ping 64 ------- 4 5.0 1.0 -1 50
- 0.105376 2 1 ping 64 ------- 4 5.0 1.0 -1 50
r 0.105632 3 5 ping 64 ------- 2 1.0 5.0 -1 43
r 0.105632 2 1 ping 64 ------- 4 5.0 1.0 -1 42
+ 0.11 0 2 ping 64 ------- 1 0.0 4.0 -1 68
- 0.11 0 2 ping 64 ------- 1 0.0 4.0 -1 68
+ 0.11 1 2 ping 64 ------- 2 1.0 5.0 -1 69
- 0.11 1 2 ping 64 ------- 2 1.0 5.0 -1 69
+ 0.11 4 3 ping 64 ------- 3 4.0 0.0 -1 70
- 0.11 4 3 ping 64 ------- 3 4.0 0.0 -1 70
+ 0.11 5 3 ping 64 ------- 4 5.0 1.0 -1 71
- 0.11 5 3 ping 64 ------- 4 5.0 1.0 -1 71
r 0.110256 0 2 ping 64 ------- 1 0.0 4.0 -1 60
+ 0.110256 2 3 ping 64 ------- 1 0.0 4.0 -1 60
- 0.110256 2 3 ping 64 ------- 1 0.0 4.0 -1 60
r 0.110256 1 2 ping 64 ------- 2 1.0 5.0 -1 61
+ 0.110256 2 3 ping 64 ------- 2 1.0 5.0 -1 61
r 0.110256 4 3 ping 64 ------- 3 4.0 0.0 -1 62
+ 0.110256 3 2 ping 64 ------- 3 4.0 0.0 -1 62
- 0.110256 3 2 ping 64 ------- 3 4.0 0.0 -1 62
r 0.110256 5 3 ping 64 ------- 4 5.0 1.0 -1 63
+ 0.110256 3 2 ping 64 ------- 4 5.0 1.0 -1 63
r 0.111536 2 3 ping 64 ------- 1 0.0 4.0 -1 52
+ 0.111536 3 4 ping 64 ------- 1 0.0 4.0 -1 52
- 0.111536 3 4 ping 64 ------- 1 0.0 4.0 -1 52
r 0.111536 3 2 ping 64 ------- 3 4.0 0.0 -1 54
+ 0.111536 2 0 ping 64 ------- 3 4.0 0.0 -1 54
- 0.111536 2 0 ping 64 ------- 3 4.0 0.0 -1 54
- 0.111536 2 3 ping 64 ------- 2 1.0 5.0 -1 61
- 0.111536 3 2 ping 64 ------- 4 5.0 1.0 -1 63
r 0.111792 3 4 ping 64 ------- 1 0.0 4.0 -1 44
+ 0.111792 4 3 ping 64 ------- 3 4.0 0.0 -1 72
- 0.111792 4 3 ping 64 ------- 3 4.0 0.0 -1 72
r 0.111792 2 0 ping 64 ------- 3 4.0 0.0 -1 46
+ 0.111792 0 2 ping 64 ------- 1 0.0 4.0 -1 73
- 0.111792 0 2 ping 64 ------- 1 0.0 4.0 -1 73
r 0.112048 4 3 ping 64 ------- 3 4.0 0.0 -1 64
+ 0.112048 3 2 ping 64 ------- 3 4.0 0.0 -1 64
r 0.112048 0 2 ping 64 ------- 1 0.0 4.0 -1 65
+ 0.112048 2 3 ping 64 ------- 1 0.0 4.0 -1 65
r 0.112816 2 3 ping 64 ------- 2 1.0 5.0 -1 53
+ 0.112816 3 5 ping 64 ------- 2 1.0 5.0 -1 53
- 0.112816 3 5 ping 64 ------- 2 1.0 5.0 -1 53
r 0.112816 3 2 ping 64 ------- 4 5.0 1.0 -1 55
+ 0.112816 2 1 ping 64 ------- 4 5.0 1.0 -1 55
- 0.112816 2 1 ping 64 ------- 4 5.0 1.0 -1 55
- 0.112816 2 3 ping 64 ------- 1 0.0 4.0 -1 65
- 0.112816 3 2 ping 64 ------- 3 4.0 0.0 -1 64
r 0.113072 3 5 ping 64 ------- 2 1.0 5.0 -1 45
+ 0.113072 5 3 ping 64 ------- 4 5.0 1.0 -1 74
- 0.113072 5 3 ping 64 ------- 4 5.0 1.0 -1 74
r 0.113072 2 1 ping 64 ------- 4 5.0 1.0 -1 47
+ 0.113072 1 2 ping 64 ------- 2 1.0 5.0 -1 75
- 0.113072 1 2 ping 64 ------- 2 1.0 5.0 -1 75
r 0.113328 5 3 ping 64 ------- 4 5.0 1.0 -1 66
+ 0.113328 3 2 ping 64 ------- 4 5.0 1.0 -1 66
r 0.113328 1 2 ping 64 ------- 2 1.0 5.0 -1 67
+ 0.113328 2 3 ping 64 ------- 2 1.0 5.0 -1 67
r 0.114096 2 3 ping 64 ------- 1 0.0 4.0 -1 57
+ 0.114096 3 4 ping 64 ------- 1 0.0 4.0 -1 57
- 0.114096 3 4 ping 64 ------- 1 0.0 4.0 -1 57
r 0.114096 3 2 ping 64 ------- 3 4.0 0.0 -1 56
+ 0.114096 2 0 ping 64 ------- 3 4.0 0.0 -1 56
- 0.114096 2 0 ping 64 ------- 3 4.0 0.0 -1 56
- 0.114096 2 3 ping 64 ------- 2 1.0 5.0 -1 67
- 0.114096 3 2 ping 64 ------- 4 5.0 1.0 -1 66
r 0.114352 3 4 ping 64 ------- 1 0.0 4.0 -1 49
r 0.114352 2 0 ping 64 ------- 3 4.0 0.0 -1 48
r 0.115376 2 3 ping 64 ------- 2 1.0 5.0 -1 59
+ 0.115376 3 5 ping 64 ------- 2 1.0 5.0 -1 59
- 0.115376 3 5 ping 64 ------- 2 1.0 5.0 -1 59
r 0.115376 3 2 ping 64 ------- 4 5.0 1.0 -1 58
+ 0.115376 2 1 ping 64 ------- 4 5.0 1.0 -1 58
- 0.115376 2 1 ping 64 ------- 4 5.0 1.0 -1 58
r 0.115632 3 5 ping 64 ------- 2 1.0 5.0 -1 51
r 0.115632 2 1 ping 64 ------- 4 5.0 1.0 -1 50
+ 0.12 0 2 ping 64 ------- 1 0.0 4.0 -1 76
- 0.12 0 2 ping 64 ------- 1 0.0 4.0 -1 76
+ 0.12 1 2 ping 64 ------- 2 1.0 5.0 -1 77
- 0.12 1 2 ping 64 ------- 2 1.0 5.0 -1 77
+ 0.12 4 3 ping 64 ------- 3 4.0 0.0 -1 78
- 0.12 4 3 ping 64 ------- 3 4.0 0.0 -1 78
+ 0.12 5 3 ping 64 ------- 4 5.0 1.0 -1 79
- 0.12 5 3 ping 64 ------- 4 5.0 1.0 -1 79
r 0.120256 0 2 ping 64 ------- 1 0.0 4.0 -1 68
+ 0.120256 2 3 ping 64 ------- 1 0.0 4.0 -1 68
- 0.120256 2 3 ping 64 ------- 1 0.0 4.0 -1 68
r 0.120256 1 2 ping 64 ------- 2 1.0 5.0 -1 69
+ 0.120256 2 3 ping 64 ------- 2 1.0 5.0 -1 69
r 0.120256 4 3 ping 64 ------- 3 4.0 0.0 -1 70
+ 0.120256 3 2 ping 64 ------- 3 4.0 0.0 -1 70
- 0.120256 3 2 ping 64 ------- 3 4.0 0.0 -1 70
r 0.120256 5 3 ping 64 ------- 4 5.0 1.0 -1 71
+ 0.120256 3 2 ping 64 ------- 4 5.0 1.0 -1 71
r 0.121536 2 3 ping 64 ------- 1 0.0 4.0 -1 60
+ 0.121536 3 4 ping 64 ------- 1 0.0 4.0 -1 60
- 0.121536 3 4 ping 64 ------- 1 0.0 4.0 -1 60
r 0.121536 3 2 ping 64 ------- 3 4.0 0.0 -1 62
+ 0.121536 2 0 ping 64 ------- 3 4.0 0.0 -1 62
- 0.121536 2 0 ping 64 ------- 3 4.0 0.0 -1 62
- 0.121536 2 3 ping 64 ------- 2 1.0 5.0 -1 69
- 0.121536 3 2 ping 64 ------- 4 5.0 1.0 -1 71
r 0.121792 3 4 ping 64 ------- 1 0.0 4.0 -1 52
+ 0.121792 4 3 ping 64 ------- 3 4.0 0.0 -1 80
- 0.121792 4 3 ping 64 ------- 3 4.0 0.0 -1 80
r 0.121792 2 0 ping 64 ------- 3 4.0 0.0 -1 54
+ 0.121792 0 2 ping 64 ------- 1 0.0 4.0 -1 81
- 0.121792 0 2 ping 64 ------- 1 0.0 4.0 -1 81
r 0.122048 4 3 ping 64 ------- 3 4.0 0.0 -1 72
+ 0.122048 3 2 ping 64 ------- 3 4.0 0.0 -1 72
r 0.122048 0 2 ping 64 ------- 1 0.0 4.0 -1 73
+ 0.122048 2 3 ping 64 ------- 1 0.0 4.0 -1 73
r 0.122816 2 3 ping 64 ------- 2 1.0 5.0 -1 61
+ 0.122816 3 5 ping 64 ------- 2 1.0 5.0 -1 61
- 0.122816 3 5 ping 64 ------- 2 1.0 5.0 -1 61
r 0.122816 3 2 ping 64 ------- 4 5.0 1.0 -1 63
+ 0.122816 2 1 ping 64 ------- 4 5.0 1.0 -1 63
- 0.122816 2 1 ping 64 ------- 4 5.0 1.0 -1 63
- 0.122816 2 3 ping 64 ------- 1 0.0 4.0 -1 73
- 0.122816 3 2 ping 64 ------- 3 4.0 0.0 -1 72
r 0.123072 3 5 ping 64 ------- 2 1.0 5.0 -1 53
+ 0.123072 5 3 ping 64 ------- 4 5.0 1.0 -1 82
- 0.123072 5 3 ping 64 ------- 4 5.0 1.0 -1 82
r 0.123072 2 1 ping 64 ------- 4 5.0 1.0 -1 55
+ 0.123072 1 2 ping 64 ------- 2 1.0 5.0 -1 83
- 0.123072 1 2 ping 64 ------- 2 1.0 5.0 -1 83
r 0.123328 5 3 ping 64 ------- 4 5.0 1.0 -1 74
+ 0.123328 3 2 ping 64 ------- 4 5.0 1.0 -1 74
r 0.123328 1 2 ping 64 ------- 2 1.0 5.0 -1 75
+ 0.123328 2 3 ping 64 ------- 2 1.0 5.0 -1 75
r 0.124096 2 3 ping 64 ------- 1 0.0 4.0 -1 65
+ 0.124096 3 4 ping 64 ------- 1 0.0 4.0 -1 65
- 0.124096 3 4 ping 64 ------- 1 0.0 4.0 -1 65
r 0.124096 3 2 ping 64 ------- 3 4.0 0.0 -1 64
+ 0.124096 2 0 ping 64 ------- 3 4.0 0.0 -1 64
- 0.124096 2 0 ping 64 ------- 3 4.0 0.0 -1 64