+ 0.5 0 1 tcp 40 ------- 0 0.0 4.0 0 0
- 0.5 0 1 tcp 40 ------- 0 0.0 4.0 0 0
r 0.510107 0 1 tcp 40 ------- 0 0.0 4.0 0 0
+ 0.510107 1 2 tcp 40 ------- 0 0.0 4.0 0 0
- 0.510107 1 2 tcp 40 ------- 0 0.0 4.0 0 0
r 1.011173 1 2 tcp 40 ------- 0 0.0 4.0 0 0
+ 1.011173 2 3 tcp 40 ------- 0 0.0 4.0 0 0
- 1.011173 2 3 tcp 40 ------- 0 0.0 4.0 0 0
r 1.51224 2 3 tcp 40 ------- 0 0.0 4.0 0 0
+ 1.51224 3 4 tcp 40 ------- 0 0.0 4.0 0 0
- 1.51224 3 4 tcp 40 ------- 0 0.0 4.0 0 0
r 1.562347 3 4 tcp 40 ------- 0 0.0 4.0 0 0
+ 1.562347 4 3 ack 40 ------- 0 4.0 0.0 0 1
- 1.562347 4 3 ack 40 ------- 0 4.0 0.0 0 1
r 1.612453 4 3 ack 40 ------- 0 4.0 0.0 0 1
+ 1.612453 3 2 ack 40 ------- 0 4.0 0.0 0 1
- 1.612453 3 2 ack 40 ------- 0 4.0 0.0 0 1
r 2.11352 3 2 ack 40 ------- 0 4.0 0.0 0 1
+ 2.11352 2 1 ack 40 ------- 0 4.0 0.0 0 1
- 2.11352 2 1 ack 40 ------- 0 4.0 0.0 0 1
r 2.614587 2 1 ack 40 ------- 0 4.0 0.0 0 1
+ 2.614587 1 0 ack 40 ------- 0 4.0 0.0 0 1
- 2.614587 1 0 ack 40 ------- 0 4.0 0.0 0 1
r 2.624693 1 0 ack 40 ------- 0 4.0 0.0 0 1
+ 2.624693 0 1 tcp 1040 ------- 0 0.0 4.0 1 2
- 2.624693 0 1 tcp 1040 ------- 0 0.0 4.0 1 2
+ 2.624693 0 1 tcp 1040 ------- 0 0.0 4.0 2 3
- 2.627467 0 1 tcp 1040 ------- 0 0.0 4.0 2 3
r 2.637467 0 1 tcp 1040 ------- 0 0.0 4.0 1 2
+ 2.637467 1 2 tcp 1040 ------- 0 0.0 4.0 1 2
- 2.637467 1 2 tcp 1040 ------- 0 0.0 4.0 1 2
r 2.64024 0 1 tcp 1040 ------- 0 0.0 4.0 2 3
+ 2.64024 1 2 tcp 1040 ------- 0 0.0 4.0 2 3
- 2.6652 1 2 tcp 1040 ------- 0 0.0 4.0 2 3
r 3.1652 1 2 tcp 1040 ------- 0 0.0 4.0 1 2
+ 3.1652 2 3 tcp 1040 ------- 0 0.0 4.0 1 2
- 3.1652 2 3 tcp 1040 ------- 0 0.0 4.0 1 2
r 3.192933 1 2 tcp 1040 ------- 0 0.0 4.0 2 3
+ 3.192933 2 3 tcp 1040 ------- 0 0.0 4.0 2 3
- 3.192933 2 3 tcp 1040 ------- 0 0.0 4.0 2 3
r 3.692933 2 3 tcp 1040 ------- 0 0.0 4.0 1 2
+ 3.692933 3 4 tcp 1040 ------- 0 0.0 4.0 1 2
- 3.692933 3 4 tcp 1040 ------- 0 0.0 4.0 1 2
r 3.720667 2 3 tcp 1040 ------- 0 0.0 4.0 2 3
+ 3.720667 3 4 tcp 1040 ------- 0 0.0 4.0 2 3
- 3.720667 3 4 tcp 1040 ------- 0 0.0 4.0 2 3
r 3.745707 3 4 tcp 1040 ------- 0 0.0 4.0 1 2
+ 3.745707 4 3 ack 40 ------- 0 4.0 0.0 1 4
- 3.745707 4 3 ack 40 ------- 0 4.0 0.0 1 4
r 3.77344 3 4 tcp 1040 ------- 0 0.0 4.0 2 3
+ 3.77344 4 3 ack 40 ------- 0 4.0 0.0 2 5
- 3.77344 4 3 ack 40 ------- 0 4.0 0.0 2 5
r 3.795813 4 3 ack 40 ------- 0 4.0 0.0 1 4
+ 3.795813 3 2 ack 40 ------- 0 4.0 0.0 1 4
- 3.795813 3 2 ack 40 ------- 0 4.0 0.0 1 4
r 3.823547 4 3 ack 40 ------- 0 4.0 0.0 2 5
+ 3.823547 3 2 ack 40 ------- 0 4.0 0.0 2 5
- 3.823547 3 2 ack 40 ------- 0 4.0 0.0 2 5
r 4.29688 3 2 ack 40 ------- 0 4.0 0.0 1 4
+ 4.29688 2 1 ack 40 ------- 0 4.0 0.0 1 4
- 4.29688 2 1 ack 40 ------- 0 4.0 0.0 1 4
r 4.324613 3 2 ack 40 ------- 0 4.0 0.0 2 5
+ 4.324613 2 1 ack 40 ------- 0 4.0 0.0 2 5
- 4.324613 2 1 ack 40 ------- 0 4.0 0.0 2 5
r 4.797947 2 1 ack 40 ------- 0 4.0 0.0 1 4
+ 4.797947 1 0 ack 40 ------- 0 4.0 0.0 1 4
- 4.797947 1 0 ack 40 ------- 0 4.0 0.0 1 4
r 4.808053 1 0 ack 40 ------- 0 4.0 0.0 1 4
+ 4.808053 0 1 tcp 1040 ------- 0 0.0 4.0 3 6
- 4.808053 0 1 tcp 1040 ------- 0 0.0 4.0 3 6
+ 4.808053 0 1 tcp 1040 ------- 0 0.0 4.0 4 7
- 4.810827 0 1 tcp 1040 ------- 0 0.0 4.0 4 7
r 4.820827 0 1 tcp 1040 ------- 0 0.0 4.0 3 6
+ 4.820827 1 2 tcp 1040 ------- 0 0.0 4.0 3 6
- 4.820827 1 2 tcp 1040 ------- 0 0.0 4.0 3 6
r 4.8236 0 1 tcp 1040 ------- 0 0.0 4.0 4 7
+ 4.8236 1 2 tcp 1040 ------- 0 0.0 4.0 4 7
r 4.82568 2 1 ack 40 ------- 0 4.0 0.0 2 5
+ 4.82568 1 0 ack 40 ------- 0 4.0 0.0 2 5
- 4.82568 1 0 ack 40 ------- 0 4.0 0.0 2 5
r 4.835787 1 0 ack 40 ------- 0 4.0 0.0 2 5
+ 4.835787 0 1 tcp 1040 ------- 0 0.0 4.0 5 8
- 4.835787 0 1 tcp 1040 ------- 0 0.0 4.0 5 8
+ 4.835787 0 1 tcp 1040 ------- 0 0.0 4.0 6 9
- 4.83856 0 1 tcp 1040 ------- 0 0.0 4.0 6 9
- 4.84856 1 2 tcp 1040 ------- 0 0.0 4.0 4 7
r 4.84856 0 1 tcp 1040 ------- 0 0.0 4.0 5 8
+ 4.84856 1 2 tcp 1040 ------- 0 0.0 4.0 5 8
r 4.851333 0 1 tcp 1040 ------- 0 0.0 4.0 6 9
+ 4.851333 1 2 tcp 1040 ------- 0 0.0 4.0 6 9
- 4.876293 1 2 tcp 1040 ------- 0 0.0 4.0 5 8
- 4.904027 1 2 tcp 1040 ------- 0 0.0 4.0 6 9
r 5.34856 1 2 tcp 1040 ------- 0 0.0 4.0 3 6
+ 5.34856 2 3 tcp 1040 ------- 0 0.0 4.0 3 6
- 5.34856 2 3 tcp 1040 ------- 0 0.0 4.0 3 6
r 5.376293 1 2 tcp 1040 ------- 0 0.0 4.0 4 7
+ 5.376293 2 3 tcp 1040 ------- 0 0.0 4.0 4 7
- 5.376293 2 3 tcp 1040 ------- 0 0.0 4.0 4 7
r 5.404027 1 2 tcp 1040 ------- 0 0.0 4.0 5 8
+ 5.404027 2 3 tcp 1040 ------- 0 0.0 4.0 5 8
- 5.404027 2 3 tcp 1040 ------- 0 0.0 4.0 5 8
r 5.43176 1 2 tcp 1040 ------- 0 0.0 4.0 6 9
+ 5.43176 2 3 tcp 1040 ------- 0 0.0 4.0 6 9
- 5.43176 2 3 tcp 1040 ------- 0 0.0 4.0 6 9
r 5.876293 2 3 tcp 1040 ------- 0 0.0 4.0 3 6
+ 5.876293 3 4 tcp 1040 ------- 0 0.0 4.0 3 6
- 5.876293 3 4 tcp 1040 ------- 0 0.0 4.0 3 6
r 5.904027 2 3 tcp 1040 ------- 0 0.0 4.0 4 7
+ 5.904027 3 4 tcp 1040 ------- 0 0.0 4.0 4 7
- 5.904027 3 4 tcp 1040 ------- 0 0.0 4.0 4 7
r 5.929067 3 4 tcp 1040 ------- 0 0.0 4.0 3 6
+ 5.929067 4 3 ack 40 ------- 0 4.0 0.0 3 10
- 5.929067 4 3 ack 40 ------- 0 4.0 0.0 3 10
r 5.93176 2 3 tcp 1040 ------- 0 0.0 4.0 5 8
+ 5.93176 3 4 tcp 1040 ------- 0 0.0 4.0 5 8
- 5.93176 3 4 tcp 1040 ------- 0 0.0 4.0 5 8
r 5.9568 3 4 tcp 1040 ------- 0 0.0 4.0 4 7
+ 5.9568 4 3 ack 40 ------- 0 4.0 0.0 4 11
- 5.9568 4 3 ack 40 ------- 0 4.0 0.0 4 11
r 5.959493 2 3 tcp 1040 ------- 0 0.0 4.0 6 9
+ 5.959493 3 4 tcp 1040 ------- 0 0.0 4.0 6 9
- 5.959493 3 4 tcp 1040 ------- 0 0.0 4.0 6 9
r 5.979173 4 3 ack 40 ------- 0 4.0 0.0 3 10
+ 5.979173 3 2 ack 40 ------- 0 4.0 0.0 3 10
- 5.979173 3 2 ack 40 ------- 0 4.0 0.0 3 10
r 5.984533 3 4 tcp 1040 ------- 0 0.0 4.0 5 8
+ 5.984533 4 3 ack 40 ------- 0 4.0 0.0 5 12
- 5.984533 4 3 ack 40 ------- 0 4.0 0.0 5 12
r 6.006907 4 3 ack 40 ------- 0 4.0 0.0 4 11
+ 6.006907 3 2 ack 40 ------- 0 4.0 0.0 4 11
- 6.006907 3 2 ack 40 ------- 0 4.0 0.0 4 11
r 6.012267 3 4 tcp 1040 ------- 0 0.0 4.0 6 9
+ 6.012267 4 3 ack 40 ------- 0 4.0 0.0 6 13
- 6.012267 4 3 ack 40 ------- 0 4.0 0.0 6 13
r 6.03464 4 3 ack 40 ------- 0 4.0 0.0 5 12
+ 6.03464 3 2 ack 40 ------- 0 4.0 0.0 5 12
- 6.03464 3 2 ack 40 ------- 0 4.0 0.0 5 12
r 6.062373 4 3 ack 40 ------- 0 4.0 0.0 6 13
+ 6.062373 3 2 ack 40 ------- 0 4.0 0.0 6 13
- 6.062373 3 2 ack 40 ------- 0 4.0 0.0 6 13
r 6.48024 3 2 ack 40 ------- 0 4.0 0.0 3 10
+ 6.48024 2 1 ack 40 ------- 0 4.0 0.0 3 10
- 6.48024 2 1 ack 40 ------- 0 4.0 0.0 3 10
r 6.507973 3 2 ack 40 ------- 0 4.0 0.0 4 11
+ 6.507973 2 1 ack 40 ------- 0 4.0 0.0 4 11
- 6.507973 2 1 ack 40 ------- 0 4.0 0.0 4 11
r 6.535707 3 2 ack 40 ------- 0 4.0 0.0 5 12
+ 6.535707 2 1 ack 40 ------- 0 4.0 0.0 5 12
- 6.535707 2 1 ack 40 ------- 0 4.0 0.0 5 12
r 6.56344 3 2 ack 40 ------- 0 4.0 0.0 6 13
+ 6.56344 2 1 ack 40 ------- 0 4.0 0.0 6 13
- 6.56344 2 1 ack 40 ------- 0 4.0 0.0 6 13
r 6.981307 2 1 ack 40 ------- 0 4.0 0.0 3 10
+ 6.981307 1 0 ack 40 ------- 0 4.0 0.0 3 10
- 6.981307 1 0 ack 40 ------- 0 4.0 0.0 3 10
r 6.991413 1 0 ack 40 ------- 0 4.0 0.0 3 10
+ 6.991413 0 1 tcp 1040 ------- 0 0.0 4.0 7 14
- 6.991413 0 1 tcp 1040 ------- 0 0.0 4.0 7 14
+ 6.991413 0 1 tcp 1040 ------- 0 0.0 4.0 8 15
- 6.994187 0 1 tcp 1040 ------- 0 0.0 4.0 8 15
r 7.004187 0 1 tcp 1040 ------- 0 0.0 4.0 7 14
+ 7.004187 1 2 tcp 1040 ------- 0 0.0 4.0 7 14
- 7.004187 1 2 tcp 1040 ------- 0 0.0 4.0 7 14
r 7.00696 0 1 tcp 1040 ------- 0 0.0 4.0 8 15
+ 7.00696 1 2 tcp 1040 ------- 0 0.0 4.0 8 15
r 7.00904 2 1 ack 40 ------- 0 4.0 0.0 4 11
+ 7.00904 1 0 ack 40 ------- 0 4.0 0.0 4 11
- 7.00904 1 0 ack 40 ------- 0 4.0 0.0 4 11
r 7.019147 1 0 ack 40 ------- 0 4.0 0.0 4 11
+ 7.019147 0 1 tcp 1040 ------- 0 0.0 4.0 9 16
- 7.019147 0 1 tcp 1040 ------- 0 0.0 4.0 9 16
+ 7.019147 0 1 tcp 1040 ------- 0 0.0 4.0 10 17
- 7.02192 0 1 tcp 1040 ------- 0 0.0 4.0 10 17
r 7.03192 0 1 tcp 1040 ------- 0 0.0 4.0 9 16
+ 7.03192 1 2 tcp 1040 ------- 0 0.0 4.0 9 16
- 7.03192 1 2 tcp 1040 ------- 0 0.0 4.0 8 15
r 7.034693 0 1 tcp 1040 ------- 0 0.0 4.0 10 17
+ 7.034693 1 2 tcp 1040 ------- 0 0.0 4.0 10 17
r 7.036773 2 1 ack 40 ------- 0 4.0 0.0 5 12
+ 7.036773 1 0 ack 40 ------- 0 4.0 0.0 5 12
- 7.036773 1 0 ack 40 ------- 0 4.0 0.0 5 12
r 7.04688 1 0 ack 40 ------- 0 4.0 0.0 5 12
+ 7.04688 0 1 tcp 1040 ------- 0 0.0 4.0 11 18
- 7.04688 0 1 tcp 1040 ------- 0 0.0 4.0 11 18
+ 7.04688 0 1 tcp 1040 ------- 0 0.0 4.0 12 19
- 7.049653 0 1 tcp 1040 ------- 0 0.0 4.0 12 19
- 7.059653 1 2 tcp 1040 ------- 0 0.0 4.0 9 16
r 7.059653 0 1 tcp 1040 ------- 0 0.0 4.0 11 18
+ 7.059653 1 2 tcp 1040 ------- 0 0.0 4.0 11 18
r 7.062427 0 1 tcp 1040 ------- 0 0.0 4.0 12 19
+ 7.062427 1 2 tcp 1040 ------- 0 0.0 4.0 12 19
r 7.064507 2 1 ack 40 ------- 0 4.0 0.0 6 13
+ 7.064507 1 0 ack 40 ------- 0 4.0 0.0 6 13
- 7.064507 1 0 ack 40 ------- 0 4.0 0.0 6 13
r 7.074613 1 0 ack 40 ------- 0 4.0 0.0 6 13
+ 7.074613 0 1 tcp 1040 ------- 0 0.0 4.0 13 20
- 7.074613 0 1 tcp 1040 ------- 0 0.0 4.0 13 20
+ 7.074613 0 1 tcp 1040 ------- 0 0.0 4.0 14 21
- 7.077387 0 1 tcp 1040 ------- 0 0.0 4.0 14 21
r 7.087387 0 1 tcp 1040 ------- 0 0.0 4.0 13 20
+ 7.087387 1 2 tcp 1040 ------- 0 0.0 4.0 13 20
- 7.087387 1 2 tcp 1040 ------- 0 0.0 4.0 10 17
r 7.09016 0 1 tcp 1040 ------- 0 0.0 4.0 14 21
+ 7.09016 1 2 tcp 1040 ------- 0 0.0 4.0 14 21
- 7.11512 1 2 tcp 1040 ------- 0 0.0 4.0 11 18
- 7.142853 1 2 tcp 1040 ------- 0 0.0 4.0 12 19
- 7.170587 1 2 tcp 1040 ------- 0 0.0 4.0 13 20
- 7.19832 1 2 tcp 1040 ------- 0 0.0 4.0 14 21
r 7.53192 1 2 tcp 1040 ------- 0 0.0 4.0 7 14
+ 7.53192 2 3 tcp 1040 ------- 0 0.0 4.0 7 14
- 7.53192 2 3 tcp 1040 ------- 0 0.0 4.0 7 14
r 7.559653 1 2 tcp 1040 ------- 0 0.0 4.0 8 15
+ 7.559653 2 3 tcp 1040 ------- 0 0.0 4.0 8 15
- 7.559653 2 3 tcp 1040 ------- 0 0.0 4.0 8 15
r 7.587387 1 2 tcp 1040 ------- 0 0.0 4.0 9 16
+ 7.587387 2 3 tcp 1040 ------- 0 0.0 4.0 9 16
- 7.587387 2 3 tcp 1040 ------- 0 0.0 4.0 9 16
r 7.61512 1 2 tcp 1040 ------- 0 0.0 4.0 10 17
+ 7.61512 2 3 tcp 1040 ------- 0 0.0 4.0 10 17
- 7.61512 2 3 tcp 1040 ------- 0 0.0 4.0 10 17
r 7.642853 1 2 tcp 1040 ------- 0 0.0 4.0 11 18
+ 7.642853 2 3 tcp 1040 ------- 0 0.0 4.0 11 18
- 7.642853 2 3 tcp 1040 ------- 0 0.0 4.0 11 18
r 7.670587 1 2 tcp 1040 ------- 0 0.0 4.0 12 19
+ 7.670587 2 3 tcp 1040 ------- 0 0.0 4.0 12 19
- 7.670587 2 3 tcp 1040 ------- 0 0.0 4.0 12 19
r 7.69832 1 2 tcp 1040 ------- 0 0.0 4.0 13 20
+ 7.69832 2 3 tcp 1040 ------- 0 0.0 4.0 13 20
- 7.69832 2 3 tcp 1040 ------- 0 0.0 4.0 13 20
r 7.726053 1 2 tcp 1040 ------- 0 0.0 4.0 14 21
+ 7.726053 2 3 tcp 1040 ------- 0 0.0 4.0 14 21
- 7.726053 2 3 tcp 1040 ------- 0 0.0 4.0 14 21
r 8.059653 2 3 tcp 1040 ------- 0 0.0 4.0 7 14
+ 8.059653 3 4 tcp 1040 ------- 0 0.0 4.0 7 14
- 8.059653 3 4 tcp 1040 ------- 0 0.0 4.0 7 14
r 8.087387 2 3 tcp 1040 ------- 0 0.0 4.0 8 15
+ 8.087387 3 4 tcp 1040 ------- 0 0.0 4.0 8 15
- 8.087387 3 4 tcp 1040 ------- 0 0.0 4.0 8 15
r 8.112427 3 4 tcp 1040 ------- 0 0.0 4.0 7 14
+ 8.112427 4 3 ack 40 ------- 0 4.0 0.0 7 22
- 8.112427 4 3 ack 40 ------- 0 4.0 0.0 7 22
r 8.11512 2 3 tcp 1040 ------- 0 0.0 4.0 9 16
+ 8.11512 3 4 tcp 1040 ------- 0 0.0 4.0 9 16
- 8.11512 3 4 tcp 1040 ------- 0 0.0 4.0 9 16
r 8.14016 3 4 tcp 1040 ------- 0 0.0 4.0 8 15
+ 8.14016 4 3 ack 40 ------- 0 4.0 0.0 8 23
- 8.14016 4 3 ack 40 ------- 0 4.0 0.0 8 23
r 8.142853 2 3 tcp 1040 ------- 0 0.0 4.0 10 17
+ 8.142853 3 4 tcp 1040 ------- 0 0.0 4.0 10 17
- 8.142853 3 4 tcp 1040 ------- 0 0.0 4.0 10 17
r 8.162533 4 3 ack 40 ------- 0 4.0 0.0 7 22
+ 8.162533 3 2 ack 40 ------- 0 4.0 0.0 7 22
- 8.162533 3 2 ack 40 ------- 0 4.0 0.0 7 22
r 8.167893 3 4 tcp 1040 ------- 0 0.0 4.0 9 16
+ 8.167893 4 3 ack 40 ------- 0 4.0 0.0 9 24
- 8.167893 4 3 ack 40 ------- 0 4.0 0.0 9 24
r 8.170587 2 3 tcp 1040 ------- 0 0.0 4.0 11 18
+ 8.170587 3 4 tcp 1040 ------- 0 0.0 4.0 11 18
- 8.170587 3 4 tcp 1040 ------- 0 0.0 4.0 11 18
r 8.190267 4 3 ack 40 ------- 0 4.0 0.0 8 23
+ 8.190267 3 2 ack 40 ------- 0 4.0 0.0 8 23
- 8.190267 3 2 ack 40 ------- 0 4.0 0.0 8 23
r 8.195627 3 4 tcp 1040 ------- 0 0.0 4.0 10 17
+ 8.195627 4 3 ack 40 ------- 0 4.0 0.0 10 25
- 8.195627 4 3 ack 40 ------- 0 4.0 0.0 10 25
r 8.19832 2 3 tcp 1040 ------- 0 0.0 4.0 12 19
+ 8.19832 3 4 tcp 1040 ------- 0 0.0 4.0 12 19
- 8.19832 3 4 tcp 1040 ------- 0 0.0 4.0 12 19
r 8.218 4 3 ack 40 ------- 0 4.0 0.0 9 24
+ 8.218 3 2 ack 40 ------- 0 4.0 0.0 9 24
- 8.218 3 2 ack 40 ------- 0 4.0 0.0 9 24
r 8.22336 3 4 tcp 1040 ------- 0 0.0 4.0 11 18
+ 8.22336 4 3 ack 40 ------- 0 4.0 0.0 11 26
- 8.22336 4 3 ack 40 ------- 0 4.0 0.0 11 26
r 8.226053 2 3 tcp 1040 ------- 0 0.0 4.0 13 20
+ 8.226053 3 4 tcp 1040 ------- 0 0.0 4.0 13 20
- 8.226053 3 4 tcp 1040 ------- 0 0.0 4.0 13 20
r 8.245733 4 3 ack 40 ------- 0 4.0 0.0 10 25
+ 8.245733 3 2 ack 40 ------- 0 4.0 0.0 10 25
- 8.245733 3 2 ack 40 ------- 0 4.0 0.0 10 25
r 8.251093 3 4 tcp 1040 ------- 0 0.0 4.0 12 19
+ 8.251093 4 3 ack 40 ------- 0 4.0 0.0 12 27
- 8.251093 4 3 ack 40 ------- 0 4.0 0.0 12 27
r 8.253787 2 3 tcp 1040 ------- 0 0.0 4.0 14 21
+ 8.253787 3 4 tcp 1040 ------- 0 0.0 4.0 14 21
- 8.253787 3 4 tcp 1040 ------- 0 0.0 4.0 14 21
r 8.273467 4 3 ack 40 ------- 0 4.0 0.0 11 26
+ 8.273467 3 2 ack 40 ------- 0 4.0 0.0 11 26
- 8.273467 3 2 ack 40 ------- 0 4.0 0.0 11 26
r 8.278827 3 4 tcp 1040 ------- 0 0.0 4.0 13 20
+ 8.278827 4 3 ack 40 ------- 0 4.0 0.0 13 28
- 8.278827 4 3 ack 40 ------- 0 4.0 0.0 13 28
r 8.3012 4 3 ack 40 ------- 0 4.0 0.0 12 27
+ 8.3012 3 2 ack 40 ------- 0 4.0 0.0 12 27
- 8.3012 3 2 ack 40 ------- 0 4.0 0.0 12 27
r 8.30656 3 4 tcp 1040 ------- 0 0.0 4.0 14 21
+ 8.30656 4 3 ack 40 ------- 0 4.0 0.0 14 29
- 8.30656 4 3 ack 40 ------- 0 4.0 0.0 14 29
r 8.328933 4 3 ack 40 ------- 0 4.0 0.0 13 28
+ 8.328933 3 2 ack 40 ------- 0 4.0 0.0 13 28
- 8.328933 3 2 ack 40 ------- 0 4.0 0.0 13 28
r 8.356667 4 3 ack 40 ------- 0 4.0 0.0 14 29
+ 8.356667 3 2 ack 40 ------- 0 4.0 0.0 14 29
- 8.356667 3 2 ack 40 ------- 0 4.0 0.0 14 29
r 8.6636 3 2 ack 40 ------- 0 4.0 0.0 7 22
+ 8.6636 2 1 ack 40 ------- 0 4.0 0.0 7 22
- 8.6636 2 1 ack 40 ------- 0 4.0 0.0 7 22
r 8.691333 3 2 ack 40 ------- 0 4.0 0.0 8 23
+ 8.691333 2 1 ack 40 ------- 0 4.0 0.0 8 23
- 8.691333 2 1 ack 40 ------- 0 4.0 0.0 8 23
r 8.719067 3 2 ack 40 ------- 0 4.0 0.0 9 24
+ 8.719067 2 1 ack 40 ------- 0 4.0 0.0 9 24
- 8.719067 2 1 ack 40 ------- 0 4.0 0.0 9 24
r 8.7468 3 2 ack 40 ------- 0 4.0 0.0 10 25
+ 8.7468 2 1 ack 40 ------- 0 4.0 0.0 10 25
- 8.7468 2 1 ack 40 ------- 0 4.0 0.0 10 25
r 8.774533 3 2 ack 40 ------- 0 4.0 0.0 11 26
+ 8.774533 2 1 ack 40 ------- 0 4.0 0.0 11 26
- 8.774533 2 1 ack 40 ------- 0 4.0 0.0 11 26
r 8.802267 3 2 ack 40 ------- 0 4.0 0.0 12 27
+ 8.802267 2 1 ack 40 ------- 0 4.0 0.0 12 27
- 8.802267 2 1 ack 40 ------- 0 4.0 0.0 12 27
r 8.83 3 2 ack 40 ------- 0 4.0 0.0 13 28
+ 8.83 2 1 ack 40 ------- 0 4.0 0.0 13 28
- 8.83 2 1 ack 40 ------- 0 4.0 0.0 13 28
r 8.857733 3 2 ack 40 ------- 0 4.0 0.0 14 29
+ 8.857733 2 1 ack 40 ------- 0 4.0 0.0 14 29
- 8.857733 2 1 ack 40 ------- 0 4.0 0.0 14 29
r 9.164667 2 1 ack 40 ------- 0 4.0 0.0 7 22
+ 9.164667 1 0 ack 40 ------- 0 4.0 0.0 7 22
- 9.164667 1 0 ack 40 ------- 0 4.0 0.0 7 22
r 9.174773 1 0 ack 40 ------- 0 4.0 0.0 7 22
+ 9.174773 0 1 tcp 1040 ------- 0 0.0 4.0 15 30
- 9.174773 0 1 tcp 1040 ------- 0 0.0 4.0 15 30
+ 9.174773 0 1 tcp 1040 ------- 0 0.0 4.0 16 31
- 9.177547 0 1 tcp 1040 ------- 0 0.0 4.0 16 31
r 9.187547 0 1 tcp 1040 ------- 0 0.0 4.0 15 30
+ 9.187547 1 2 tcp 1040 ------- 0 0.0 4.0 15 30
- 9.187547 1 2 tcp 1040 ------- 0 0.0 4.0 15 30
r 9.19032 0 1 tcp 1040 ------- 0 0.0 4.0 16 31
+ 9.19032 1 2 tcp 1040 ------- 0 0.0 4.0 16 31
r 9.1924 2 1 ack 40 ------- 0 4.0 0.0 8 23
+ 9.1924 1 0 ack 40 ------- 0 4.0 0.0 8 23
- 9.1924 1 0 ack 40 ------- 0 4.0 0.0 8 23
r 9.202507 1 0 ack 40 ------- 0 4.0 0.0 8 23
+ 9.202507 0 1 tcp 1040 ------- 0 0.0 4.0 17 32
- 9.202507 0 1 tcp 1040 ------- 0 0.0 4.0 17 32
+ 9.202507 0 1 tcp 1040 ------- 0 0.0 4.0 18 33
- 9.20528 0 1 tcp 1040 ------- 0 0.0 4.0 18 33
r 9.21528 0 1 tcp 1040 ------- 0 0.0 4.0 17 32
+ 9.21528 1 2 tcp 1040 ------- 0 0.0 4.0 17 32
- 9.21528 1 2 tcp 1040 ------- 0 0.0 4.0 16 31
r 9.218053 0 1 tcp 1040 ------- 0 0.0 4.0 18 33
+ 9.218053 1 2 tcp 1040 ------- 0 0.0 4.0 18 33
r 9.220133 2 1 ack 40 ------- 0 4.0 0.0 9 24
+ 9.220133 1 0 ack 40 ------- 0 4.0 0.0 9 24
- 9.220133 1 0 ack 40 ------- 0 4.0 0.0 9 24
r 9.23024 1 0 ack 40 ------- 0 4.0 0.0 9 24
+ 9.23024 0 1 tcp 1040 ------- 0 0.0 4.0 19 34
- 9.23024 0 1 tcp 1040 ------- 0 0.0 4.0 19 34
+ 9.23024 0 1 tcp 1040 ------- 0 0.0 4.0 20 35
- 9.233013 0 1 tcp 1040 ------- 0 0.0 4.0 20 35
r 9.243013 0 1 tcp 1040 ------- 0 0.0 4.0 19 34
+ 9.243013 1 2 tcp 1040 ------- 0 0.0 4.0 19 34
- 9.243013 1 2 tcp 1040 ------- 0 0.0 4.0 17 32
r 9.245787 0 1 tcp 1040 ------- 0 0.0 4.0 20 35
+ 9.245787 1 2 tcp 1040 ------- 0 0.0 4.0 20 35
r 9.247867 2 1 ack 40 ------- 0 4.0 0.0 10 25
+ 9.247867 1 0 ack 40 ------- 0 4.0 0.0 10 25
- 9.247867 1 0 ack 40 ------- 0 4.0 0.0 10 25
r 9.257973 1 0 ack 40 ------- 0 4.0 0.0 10 25
+ 9.257973 0 1 tcp 1040 ------- 0 0.0 4.0 21 36
- 9.257973 0 1 tcp 1040 ------- 0 0.0 4.0 21 36
+ 9.257973 0 1 tcp 1040 ------- 0 0.0 4.0 22 37
- 9.260747 0 1 tcp 1040 ------- 0 0.0 4.0 22 37
r 9.270747 0 1 tcp 1040 ------- 0 0.0 4.0 21 36
+ 9.270747 1 2 tcp 1040 ------- 0 0.0 4.0 21 36
- 9.270747 1 2 tcp 1040 ------- 0 0.0 4.0 18 33
r 9.27352 0 1 tcp 1040 ------- 0 0.0 4.0 22 37
+ 9.27352 1 2 tcp 1040 ------- 0 0.0 4.0 22 37
r 9.2756 2 1 ack 40 ------- 0 4.0 0.0 11 26
+ 9.2756 1 0 ack 40 ------- 0 4.0 0.0 11 26
- 9.2756 1 0 ack 40 ------- 0 4.0 0.0 11 26
r 9.285707 1 0 ack 40 ------- 0 4.0 0.0 11 26
+ 9.285707 0 1 tcp 1040 ------- 0 0.0 4.0 23 38
- 9.285707 0 1 tcp 1040 ------- 0 0.0 4.0 23 38
+ 9.285707 0 1 tcp 1040 ------- 0 0.0 4.0 24 39
- 9.28848 0 1 tcp 1040 ------- 0 0.0 4.0 24 39
r 9.29848 0 1 tcp 1040 ------- 0 0.0 4.0 23 38
+ 9.29848 1 2 tcp 1040 ------- 0 0.0 4.0 23 38
- 9.29848 1 2 tcp 1040 ------- 0 0.0 4.0 19 34
r 9.301253 0 1 tcp 1040 ------- 0 0.0 4.0 24 39
+ 9.301253 1 2 tcp 1040 ------- 0 0.0 4.0 24 39
r 9.303333 2 1 ack 40 ------- 0 4.0 0.0 12 27
+ 9.303333 1 0 ack 40 ------- 0 4.0 0.0 12 27
- 9.303333 1 0 ack 40 ------- 0 4.0 0.0 12 27
r 9.31344 1 0 ack 40 ------- 0 4.0 0.0 12 27
+ 9.31344 0 1 tcp 1040 ------- 0 0.0 4.0 25 40
- 9.31344 0 1 tcp 1040 ------- 0 0.0 4.0 25 40
+ 9.31344 0 1 tcp 1040 ------- 0 0.0 4.0 26 41
- 9.316213 0 1 tcp 1040 ------- 0 0.0 4.0 26 41
r 9.326213 0 1 tcp 1040 ------- 0 0.0 4.0 25 40
+ 9.326213 1 2 tcp 1040 ------- 0 0.0 4.0 25 40
d 9.326213 1 2 tcp 1040 ------- 0 0.0 4.0 25 40
- 9.326213 1 2 tcp 1040 ------- 0 0.0 4.0 20 35
r 9.328987 0 1 tcp 1040 ------- 0 0.0 4.0 26 41
+ 9.328987 1 2 tcp 1040 ------- 0 0.0 4.0 26 41
r 9.331067 2 1 ack 40 ------- 0 4.0 0.0 13 28
+ 9.331067 1 0 ack 40 ------- 0 4.0 0.0 13 28
- 9.331067 1 0 ack 40 ------- 0 4.0 0.0 13 28
r 9.341173 1 0 ack 40 ------- 0 4.0 0.0 13 28
+ 9.341173 0 1 tcp 1040 ------- 0 0.0 4.0 27 42
- 9.341173 0 1 tcp 1040 ------- 0 0.0 4.0 27 42
+ 9.341173 0 1 tcp 1040 ------- 0 0.0 4.0 28 43
- 9.343947 0 1 tcp 1040 ------- 0 0.0 4.0 28 43
r 9.353947 0 1 tcp 1040 ------- 0 0.0 4.0 27 42
+ 9.353947 1 2 tcp 1040 ------- 0 0.0 4.0 27 42
d 9.353947 1 2 tcp 1040 ------- 0 0.0 4.0 27 42
- 9.353947 1 2 tcp 1040 ------- 0 0.0 4.0 21 36
r 9.35672 0 1 tcp 1040 ------- 0 0.0 4.0 28 43
+ 9.35672 1 2 tcp 1040 ------- 0 0.0 4.0 28 43
r 9.3588 2 1 ack 40 ------- 0 4.0 0.0 14 29
+ 9.3588 1 0 ack 40 ------- 0 4.0 0.0 14 29
- 9.3588 1 0 ack 40 ------- 0 4.0 0.0 14 29
r 9.368907 1 0 ack 40 ------- 0 4.0 0.0 14 29
+ 9.368907 0 1 tcp 1040 ------- 0 0.0 4.0 29 44
- 9.368907 0 1 tcp 1040 ------- 0 0.0 4.0 29 44
+ 9.368907 0 1 tcp 1040 ------- 0 0.0 4.0 30 45
- 9.37168 0 1 tcp 1040 ------- 0 0.0 4.0 30 45
r 9.38168 0 1 tcp 1040 ------- 0 0.0 4.0 29 44
+ 9.38168 1 2 tcp 1040 ------- 0 0.0 4.0 29 44
d 9.38168 1 2 tcp 1040 ------- 0 0.0 4.0 29 44
- 9.38168 1 2 tcp 1040 ------- 0 0.0 4.0 22 37
r 9.384453 0 1 tcp 1040 ------- 0 0.0 4.0 30 45
+ 9.384453 1 2 tcp 1040 ------- 0 0.0 4.0 30 45
- 9.409413 1 2 tcp 1040 ------- 0 0.0 4.0 23 38
- 9.437147 1 2 tcp 1040 ------- 0 0.0 4.0 24 39
- 9.46488 1 2 tcp 1040 ------- 0 0.0 4.0 26 41
- 9.492613 1 2 tcp 1040 ------- 0 0.0 4.0 28 43
- 9.520347 1 2 tcp 1040 ------- 0 0.0 4.0 30 45
r 9.71528 1 2 tcp 1040 ------- 0 0.0 4.0 15 30
+ 9.71528 2 3 tcp 1040 ------- 0 0.0 4.0 15 30
- 9.71528 2 3 tcp 1040 ------- 0 0.0 4.0 15 30
r 9.743013 1 2 tcp 1040 ------- 0 0.0 4.0 16 31
+ 9.743013 2 3 tcp 1040 ------- 0 0.0 4.0 16 31
- 9.743013 2 3 tcp 1040 ------- 0 0.0 4.0 16 31
r 9.770747 1 2 tcp 1040 ------- 0 0.0 4.0 17 32
+ 9.770747 2 3 tcp 1040 ------- 0 0.0 4.0 17 32
- 9.770747 2 3 tcp 1040 ------- 0 0.0 4.0 17 32
r 9.79848 1 2 tcp 1040 ------- 0 0.0 4.0 18 33
+ 9.79848 2 3 tcp 1040 ------- 0 0.0 4.0 18 33
- 9.79848 2 3 tcp 1040 ------- 0 0.0 4.0 18 33
r 9.826213 1 2 tcp 1040 ------- 0 0.0 4.0 19 34
+ 9.826213 2 3 tcp 1040 ------- 0 0.0 4.0 19 34
- 9.826213 2 3 tcp 1040 ------- 0 0.0 4.0 19 34
r 9.853947 1 2 tcp 1040 ------- 0 0.0 4.0 20 35
+ 9.853947 2 3 tcp 1040 ------- 0 0.0 4.0 20 35
- 9.853947 2 3 tcp 1040 ------- 0 0.0 4.0 20 35
r 9.88168 1 2 tcp 1040 ------- 0 0.0 4.0 21 36
+ 9.88168 2 3 tcp 1040 ------- 0 0.0 4.0 21 36
- 9.88168 2 3 tcp 1040 ------- 0 0.0 4.0 21 36
r 9.909413 1 2 tcp 1040 ------- 0 0.0 4.0 22 37
+ 9.909413 2 3 tcp 1040 ------- 0 0.0 4.0 22 37
- 9.909413 2 3 tcp 1040 ------- 0 0.0 4.0 22 37
r 9.937147 1 2 tcp 1040 ------- 0 0.0 4.0 23 38
+ 9.937147 2 3 tcp 1040 ------- 0 0.0 4.0 23 38
- 9.937147 2 3 tcp 1040 ------- 0 0.0 4.0 23 38
r 9.96488 1 2 tcp 1040 ------- 0 0.0 4.0 24 39
+ 9.96488 2 3 tcp 1040 ------- 0 0.0 4.0 24 39
- 9.96488 2 3 tcp 1040 ------- 0 0.0 4.0 24 39
r 9.992613 1 2 tcp 1040 ------- 0 0.0 4.0 26 41
+ 9.992613 2 3 tcp 1040 ------- 0 0.0 4.0 26 41
- 9.992613 2 3 tcp 1040 ------- 0 0.0 4.0 26 41
r 10.020347 1 2 tcp 1040 ------- 0 0.0 4.0 28 43
+ 10.020347 2 3 tcp 1040 ------- 0 0.0 4.0 28 43
- 10.020347 2 3 tcp 1040 ------- 0 0.0 4.0 28 43
r 10.04808 1 2 tcp 1040 ------- 0 0.0 4.0 30 45
+ 10.04808 2 3 tcp 1040 ------- 0 0.0 4.0 30 45
- 10.04808 2 3 tcp 1040 ------- 0 0.0 4.0 30 45
r 10.243013 2 3 tcp 1040 ------- 0 0.0 4.0 15 30
+ 10.243013 3 4 tcp 1040 ------- 0 0.0 4.0 15 30
- 10.243013 3 4 tcp 1040 ------- 0 0.0 4.0 15 30
r 10.270747 2 3 tcp 1040 ------- 0 0.0 4.0 16 31
+ 10.270747 3 4 tcp 1040 ------- 0 0.0 4.0 16 31
- 10.270747 3 4 tcp 1040 ------- 0 0.0 4.0 16 31
r 10.295787 3 4 tcp 1040 ------- 0 0.0 4.0 15 30
+ 10.295787 4 3 ack 40 ------- 0 4.0 0.0 15 46
- 10.295787 4 3 ack 40 ------- 0 4.0 0.0 15 46
r 10.29848 2 3 tcp 1040 ------- 0 0.0 4.0 17 32
+ 10.29848 3 4 tcp 1040 ------- 0 0.0 4.0 17 32
- 10.29848 3 4 tcp 1040 ------- 0 0.0 4.0 17 32
r 10.32352 3 4 tcp 1040 ------- 0 0.0 4.0 16 31
+ 10.32352 4 3 ack 40 ------- 0 4.0 0.0 16 47
- 10.32352 4 3 ack 40 ------- 0 4.0 0.0 16 47
r 10.326213 2 3 tcp 1040 ------- 0 0.0 4.0 18 33
+ 10.326213 3 4 tcp 1040 ------- 0 0.0 4.0 18 33
- 10.326213 3 4 tcp 1040 ------- 0 0.0 4.0 18 33
r 10.345893 4 3 ack 40 ------- 0 4.0 0.0 15 46
+ 10.345893 3 2 ack 40 ------- 0 4.0 0.0 15 46
- 10.345893 3 2 ack 40 ------- 0 4.0 0.0 15 46
r 10.351253 3 4 tcp 1040 ------- 0 0.0 4.0 17 32
+ 10.351253 4 3 ack 40 ------- 0 4.0 0.0 17 48
- 10.351253 4 3 ack 40 ------- 0 4.0 0.0 17 48
r 10.353947 2 3 tcp 1040 ------- 0 0.0 4.0 19 34
+ 10.353947 3 4 tcp 1040 ------- 0 0.0 4.0 19 34
- 10.353947 3 4 tcp 1040 ------- 0 0.0 4.0 19 34
r 10.373627 4 3 ack 40 ------- 0 4.0 0.0 16 47
+ 10.373627 3 2 ack 40 ------- 0 4.0 0.0 16 47
- 10.373627 3 2 ack 40 ------- 0 4.0 0.0 16 47
r 10.378987 3 4 tcp 1040 ------- 0 0.0 4.0 18 33
+ 10.378987 4 3 ack 40 ------- 0 4.0 0.0 18 49
- 10.378987 4 3 ack 40 ------- 0 4.0 0.0 18 49
r 10.38168 2 3 tcp 1040 ------- 0 0.0 4.0 20 35
+ 10.38168 3 4 tcp 1040 ------- 0 0.0 4.0 20 35
- 10.38168 3 4 tcp 1040 ------- 0 0.0 4.0 20 35
r 10.40136 4 3 ack 40 ------- 0 4.0 0.0 17 48
+ 10.40136 3 2 ack 40 ------- 0 4.0 0.0 17 48
- 10.40136 3 2 ack 40 ------- 0 4.0 0.0 17 48
r 10.40672 3 4 tcp 1040 ------- 0 0.0 4.0 19 34
+ 10.40672 4 3 ack 40 ------- 0 4.0 0.0 19 50
- 10.40672 4 3 ack 40 ------- 0 4.0 0.0 19 50
r 10.409413 2 3 tcp 1040 ------- 0 0.0 4.0 21 36
+ 10.409413 3 4 tcp 1040 ------- 0 0.0 4.0 21 36
- 10.409413 3 4 tcp 1040 ------- 0 0.0 4.0 21 36
r 10.429093 4 3 ack 40 ------- 0 4.0 0.0 18 49
+ 10.429093 3 2 ack 40 ------- 0 4.0 0.0 18 49
- 10.429093 3 2 ack 40 ------- 0 4.0 0.0 18 49
r 10.434453 3 4 tcp 1040 ------- 0 0.0 4.0 20 35
+ 10.434453 4 3 ack 40 ------- 0 4.0 0.0 20 51
- 10.434453 4 3 ack 40 ------- 0 4.0 0.0 20 51
r 10.437147 2 3 tcp 1040 ------- 0 0.0 4.0 22 37
+ 10.437147 3 4 tcp 1040 ------- 0 0.0 4.0 22 37
- 10.437147 3 4 tcp 1040 ------- 0 0.0 4.0 22 37
r 10.456827 4 3 ack 40 ------- 0 4.0 0.0 19 50
+ 10.456827 3 2 ack 40 ------- 0 4.0 0.0 19 50
- 10.456827 3 2 ack 40 ------- 0 4.0 0.0 19 50
r 10.462187 3 4 tcp 1040 ------- 0 0.0 4.0 21 36
+ 10.462187 4 3 ack 40 ------- 0 4.0 0.0 21 52
- 10.462187 4 3 ack 40 ------- 0 4.0 0.0 21 52
r 10.46488 2 3 tcp 1040 ------- 0 0.0 4.0 23 38
+ 10.46488 3 4 tcp 1040 ------- 0 0.0 4.0 23 38
- 10.46488 3 4 tcp 1040 ------- 0 0.0 4.0 23 38
r 10.48456 4 3 ack 40 ------- 0 4.0 0.0 20 51
+ 10.48456 3 2 ack 40 ------- 0 4.0 0.0 20 51
- 10.48456 3 2 ack 40 ------- 0 4.0 0.0 20 51
r 10.48992 3 4 tcp 1040 ------- 0 0.0 4.0 22 37
+ 10.48992 4 3 ack 40 ------- 0 4.0 0.0 22 53
- 10.48992 4 3 ack 40 ------- 0 4.0 0.0 22 53
r 10.492613 2 3 tcp 1040 ------- 0 0.0 4.0 24 39
+ 10.492613 3 4 tcp 1040 ------- 0 0.0 4.0 24 39
- 10.492613 3 4 tcp 1040 ------- 0 0.0 4.0 24 39
r 10.512293 4 3 ack 40 ------- 0 4.0 0.0 21 52
+ 10.512293 3 2 ack 40 ------- 0 4.0 0.0 21 52
- 10.512293 3 2 ack 40 ------- 0 4.0 0.0 21 52
r 10.517653 3 4 tcp 1040 ------- 0 0.0 4.0 23 38
+ 10.517653 4 3 ack 40 ------- 0 4.0 0.0 23 54
- 10.517653 4 3 ack 40 ------- 0 4.0 0.0 23 54
r 10.520347 2 3 tcp 1040 ------- 0 0.0 4.0 26 41
+ 10.520347 3 4 tcp 1040 ------- 0 0.0 4.0 26 41
- 10.520347 3 4 tcp 1040 ------- 0 0.0 4.0 26 41
r 10.540027 4 3 ack 40 ------- 0 4.0 0.0 22 53
+ 10.540027 3 2 ack 40 ------- 0 4.0 0.0 22 53
- 10.540027 3 2 ack 40 ------- 0 4.0 0.0 22 53
r 10.545387 3 4 tcp 1040 ------- 0 0.0 4.0 24 39
+ 10.545387 4 3 ack 40 ------- 0 4.0 0.0 24 55
- 10.545387 4 3 ack 40 ------- 0 4.0 0.0 24 55
r 10.54808 2 3 tcp 1040 ------- 0 0.0 4.0 28 43
+ 10.54808 3 4 tcp 1040 ------- 0 0.0 4.0 28 43
- 10.54808 3 4 tcp 1040 ------- 0 0.0 4.0 28 43
r 10.56776 4 3 ack 40 ------- 0 4.0 0.0 23 54
+ 10.56776 3 2 ack 40 ------- 0 4.0 0.0 23 54
- 10.56776 3 2 ack 40 ------- 0 4.0 0.0 23 54
r 10.57312 3 4 tcp 1040 ------- 0 0.0 4.0 26 41
+ 10.57312 4 3 ack 48 ------- 0 4.0 0.0 24 56
- 10.57312 4 3 ack 48 ------- 0 4.0 0.0 24 56
r 10.575813 2 3 tcp 1040 ------- 0 0.0 4.0 30 45
+ 10.575813 3 4 tcp 1040 ------- 0 0.0 4.0 30 45
- 10.575813 3 4 tcp 1040 ------- 0 0.0 4.0 30 45
r 10.595493 4 3 ack 40 ------- 0 4.0 0.0 24 55
+ 10.595493 3 2 ack 40 ------- 0 4.0 0.0 24 55
- 10.595493 3 2 ack 40 ------- 0 4.0 0.0 24 55
r 10.600853 3 4 tcp 1040 ------- 0 0.0 4.0 28 43
+ 10.600853 4 3 ack 56 ------- 0 4.0 0.0 24 57
- 10.600853 4 3 ack 56 ------- 0 4.0 0.0 24 57
r 10.623248 4 3 ack 48 ------- 0 4.0 0.0 24 56
+ 10.623248 3 2 ack 48 ------- 0 4.0 0.0 24 56
- 10.623248 3 2 ack 48 ------- 0 4.0 0.0 24 56
r 10.628587 3 4 tcp 1040 ------- 0 0.0 4.0 30 45
+ 10.628587 4 3 ack 64 ------- 0 4.0 0.0 24 58
- 10.628587 4 3 ack 64 ------- 0 4.0 0.0 24 58
r 10.651003 4 3 ack 56 ------- 0 4.0 0.0 24 57
+ 10.651003 3 2 ack 56 ------- 0 4.0 0.0 24 57
- 10.651003 3 2 ack 56 ------- 0 4.0 0.0 24 57
r 10.678757 4 3 ack 64 ------- 0 4.0 0.0 24 58
+ 10.678757 3 2 ack 64 ------- 0 4.0 0.0 24 58
- 10.678757 3 2 ack 64 ------- 0 4.0 0.0 24 58
r 10.84696 3 2 ack 40 ------- 0 4.0 0.0 15 46
+ 10.84696 2 1 ack 40 ------- 0 4.0 0.0 15 46
- 10.84696 2 1 ack 40 ------- 0 4.0 0.0 15 46
r 10.874693 3 2 ack 40 ------- 0 4.0 0.0 16 47
+ 10.874693 2 1 ack 40 ------- 0 4.0 0.0 16 47
- 10.874693 2 1 ack 40 ------- 0 4.0 0.0 16 47
r 10.902427 3 2 ack 40 ------- 0 4.0 0.0 17 48
+ 10.902427 2 1 ack 40 ------- 0 4.0 0.0 17 48
- 10.902427 2 1 ack 40 ------- 0 4.0 0.0 17 48
r 10.93016 3 2 ack 40 ------- 0 4.0 0.0 18 49
+ 10.93016 2 1 ack 40 ------- 0 4.0 0.0 18 49
- 10.93016 2 1 ack 40 ------- 0 4.0 0.0 18 49
r 10.957893 3 2 ack 40 ------- 0 4.0 0.0 19 50
+ 10.957893 2 1 ack 40 ------- 0 4.0 0.0 19 50
- 10.957893 2 1 ack 40 ------- 0 4.0 0.0 19 50
r 10.985627 3 2 ack 40 ------- 0 4.0 0.0 20 51
+ 10.985627 2 1 ack 40 ------- 0 4.0 0.0 20 51
- 10.985627 2 1 ack 40 ------- 0 4.0 0.0 20 51
r 11.01336 3 2 ack 40 ------- 0 4.0 0.0 21 52
+ 11.01336 2 1 ack 40 ------- 0 4.0 0.0 21 52
- 11.01336 2 1 ack 40 ------- 0 4.0 0.0 21 52
r 11.041093 3 2 ack 40 ------- 0 4.0 0.0 22 53
+ 11.041093 2 1 ack 40 ------- 0 4.0 0.0 22 53
- 11.041093 2 1 ack 40 ------- 0 4.0 0.0 22 53
r 11.068827 3 2 ack 40 ------- 0 4.0 0.0 23 54
+ 11.068827 2 1 ack 40 ------- 0 4.0 0.0 23 54
- 11.068827 2 1 ack 40 ------- 0 4.0 0.0 23 54
r 11.09656 3 2 ack 40 ------- 0 4.0 0.0 24 55
+ 11.09656 2 1 ack 40 ------- 0 4.0 0.0 24 55
- 11.09656 2 1 ack 40 ------- 0 4.0 0.0 24 55
r 11.124528 3 2 ack 48 ------- 0 4.0 0.0 24 56
+ 11.124528 2 1 ack 48 ------- 0 4.0 0.0 24 56
- 11.124528 2 1 ack 48 ------- 0 4.0 0.0 24 56
r 11.152496 3 2 ack 56 ------- 0 4.0 0.0 24 57
+ 11.152496 2 1 ack 56 ------- 0 4.0 0.0 24 57
- 11.152496 2 1 ack 56 ------- 0 4.0 0.0 24 57
r 11.180464 3 2 ack 64 ------- 0 4.0 0.0 24 58
+ 11.180464 2 1 ack 64 ------- 0 4.0 0.0 24 58
- 11.180464 2 1 ack 64 ------- 0 4.0 0.0 24 58
r 11.348027 2 1 ack 40 ------- 0 4.0 0.0 15 46
+ 11.348027 1 0 ack 40 ------- 0 4.0 0.0 15 46
- 11.348027 1 0 ack 40 ------- 0 4.0 0.0 15 46
r 11.358133 1 0 ack 40 ------- 0 4.0 0.0 15 46
+ 11.358133 0 1 tcp 1040 ------- 0 0.0 4.0 31 59
- 11.358133 0 1 tcp 1040 ------- 0 0.0 4.0 31 59
+ 11.358133 0 1 tcp 1040 ------- 0 0.0 4.0 32 60
- 11.360907 0 1 tcp 1040 ------- 0 0.0 4.0 32 60
r 11.370907 0 1 tcp 1040 ------- 0 0.0 4.0 31 59
+ 11.370907 1 2 tcp 1040 ------- 0 0.0 4.0 31 59
- 11.370907 1 2 tcp 1040 ------- 0 0.0 4.0 31 59