V -t * -v 1.0a5 -a 0
A -t * -n 1 -p 0 -o 0x7fffffff -c 30 -a 1
A -t * -h 1 -m 1073741823 -s 0
n -t * -a 4 -s 4 -S UP -v circle -c black -i black
n -t * -a 0 -s 0 -S UP -v circle -c black -i black
n -t * -a 1 -s 1 -S UP -v circle -c black -i black
n -t * -a 2 -s 2 -S UP -v circle -c black -i black
n -t * -a 3 -s 3 -S UP -v circle -c black -i black
l -t * -s 0 -d 1 -S UP -r 3000000 -D 0.01 -c black
l -t * -s 1 -d 2 -S UP -r 10000 -D 0.5 -c black
l -t * -s 2 -d 3 -S UP -r 10000 -D 0.5 -c black
l -t * -s 3 -d 4 -S UP -r 3000000 -D 0.050000000000000003 -c black
+ -t 0.5 -s 0 -d 1 -p tcp -e 40 -c 0 -i 0 -a 0 -x {0.0 4.0 0 ------- null}
- -t 0.5 -s 0 -d 1 -p tcp -e 40 -c 0 -i 0 -a 0 -x {0.0 4.0 0 ------- null}
h -t 0.5 -s 0 -d 1 -p tcp -e 40 -c 0 -i 0 -a 0 -x {0.0 4.0 -1 ------- null}
r -t 0.510106666666667 -s 0 -d 1 -p tcp -e 40 -c 0 -i 0 -a 0 -x {0.0 4.0 0 ------- null}
+ -t 0.510106666666667 -s 1 -d 2 -p tcp -e 40 -c 0 -i 0 -a 0 -x {0.0 4.0 0 ------- null}
- -t 0.510106666666667 -s 1 -d 2 -p tcp -e 40 -c 0 -i 0 -a 0 -x {0.0 4.0 0 ------- null}
h -t 0.510106666666667 -s 1 -d 2 -p tcp -e 40 -c 0 -i 0 -a 0 -x {0.0 4.0 -1 ------- null}
r -t 1.04210666666667 -s 1 -d 2 -p tcp -e 40 -c 0 -i 0 -a 0 -x {0.0 4.0 0 ------- null}
+ -t 1.04210666666667 -s 2 -d 3 -p tcp -e 40 -c 0 -i 0 -a 0 -x {0.0 4.0 0 ------- null}
- -t 1.04210666666667 -s 2 -d 3 -p tcp -e 40 -c 0 -i 0 -a 0 -x {0.0 4.0 0 ------- null}
h -t 1.04210666666667 -s 2 -d 3 -p tcp -e 40 -c 0 -i 0 -a 0 -x {0.0 4.0 -1 ------- null}
r -t 1.57410666666667 -s 2 -d 3 -p tcp -e 40 -c 0 -i 0 -a 0 -x {0.0 4.0 0 ------- null}
+ -t 1.57410666666667 -s 3 -d 4 -p tcp -e 40 -c 0 -i 0 -a 0 -x {0.0 4.0 0 ------- null}
- -t 1.57410666666667 -s 3 -d 4 -p tcp -e 40 -c 0 -i 0 -a 0 -x {0.0 4.0 0 ------- null}
h -t 1.57410666666667 -s 3 -d 4 -p tcp -e 40 -c 0 -i 0 -a 0 -x {0.0 4.0 -1 ------- null}
r -t 1.62421333333333 -s 3 -d 4 -p tcp -e 40 -c 0 -i 0 -a 0 -x {0.0 4.0 0 ------- null}
+ -t 1.62421333333333 -s 4 -d 3 -p ack -e 40 -c 0 -i 1 -a 0 -x {4.0 0.0 0 ------- null}
- -t 1.62421333333333 -s 4 -d 3 -p ack -e 40 -c 0 -i 1 -a 0 -x {4.0 0.0 0 ------- null}
h -t 1.62421333333333 -s 4 -d 3 -p ack -e 40 -c 0 -i 1 -a 0 -x {4.0 0.0 -1 ------- null}
r -t 1.67432 -s 4 -d 3 -p ack -e 40 -c 0 -i 1 -a 0 -x {4.0 0.0 0 ------- null}
+ -t 1.67432 -s 3 -d 2 -p ack -e 40 -c 0 -i 1 -a 0 -x {4.0 0.0 0 ------- null}
- -t 1.67432 -s 3 -d 2 -p ack -e 40 -c 0 -i 1 -a 0 -x {4.0 0.0 0 ------- null}
h -t 1.67432 -s 3 -d 2 -p ack -e 40 -c 0 -i 1 -a 0 -x {4.0 0.0 -1 ------- null}
r -t 2.20632 -s 3 -d 2 -p ack -e 40 -c 0 -i 1 -a 0 -x {4.0 0.0 0 ------- null}
+ -t 2.20632 -s 2 -d 1 -p ack -e 40 -c 0 -i 1 -a 0 -x {4.0 0.0 0 ------- null}
- -t 2.20632 -s 2 -d 1 -p ack -e 40 -c 0 -i 1 -a 0 -x {4.0 0.0 0 ------- null}
h -t 2.20632 -s 2 -d 1 -p ack -e 40 -c 0 -i 1 -a 0 -x {4.0 0.0 -1 ------- null}
r -t 2.73832 -s 2 -d 1 -p ack -e 40 -c 0 -i 1 -a 0 -x {4.0 0.0 0 ------- null}
+ -t 2.73832 -s 1 -d 0 -p ack -e 40 -c 0 -i 1 -a 0 -x {4.0 0.0 0 ------- null}
- -t 2.73832 -s 1 -d 0 -p ack -e 40 -c 0 -i 1 -a 0 -x {4.0 0.0 0 ------- null}
h -t 2.73832 -s 1 -d 0 -p ack -e 40 -c 0 -i 1 -a 0 -x {4.0 0.0 -1 ------- null}
r -t 2.74842666666667 -s 1 -d 0 -p ack -e 40 -c 0 -i 1 -a 0 -x {4.0 0.0 0 ------- null}
+ -t 2.74842666666667 -s 0 -d 1 -p tcp -e 1040 -c 0 -i 2 -a 0 -x {0.0 4.0 1 ------- null}
- -t 2.74842666666667 -s 0 -d 1 -p tcp -e 1040 -c 0 -i 2 -a 0 -x {0.0 4.0 1 ------- null}
h -t 2.74842666666667 -s 0 -d 1 -p tcp -e 1040 -c 0 -i 2 -a 0 -x {0.0 4.0 -1 ------- null}
+ -t 2.74842666666667 -s 0 -d 1 -p tcp -e 1040 -c 0 -i 3 -a 0 -x {0.0 4.0 2 ------- null}
- -t 2.7512 -s 0 -d 1 -p tcp -e 1040 -c 0 -i 3 -a 0 -x {0.0 4.0 2 ------- null}
h -t 2.7512 -s 0 -d 1 -p tcp -e 1040 -c 0 -i 3 -a 0 -x {0.0 4.0 -1 ------- null}
r -t 2.7612 -s 0 -d 1 -p tcp -e 1040 -c 0 -i 2 -a 0 -x {0.0 4.0 1 ------- null}
+ -t 2.7612 -s 1 -d 2 -p tcp -e 1040 -c 0 -i 2 -a 0 -x {0.0 4.0 1 ------- null}
- -t 2.7612 -s 1 -d 2 -p tcp -e 1040 -c 0 -i 2 -a 0 -x {0.0 4.0 1 ------- null}
h -t 2.7612 -s 1 -d 2 -p tcp -e 1040 -c 0 -i 2 -a 0 -x {0.0 4.0 -1 ------- null}
r -t 2.76397333333333 -s 0 -d 1 -p tcp -e 1040 -c 0 -i 3 -a 0 -x {0.0 4.0 2 ------- null}
+ -t 2.76397333333333 -s 1 -d 2 -p tcp -e 1040 -c 0 -i 3 -a 0 -x {0.0 4.0 2 ------- null}
- -t 3.5932 -s 1 -d 2 -p tcp -e 1040 -c 0 -i 3 -a 0 -x {0.0 4.0 2 ------- null}
h -t 3.5932 -s 1 -d 2 -p tcp -e 1040 -c 0 -i 3 -a 0 -x {0.0 4.0 -1 ------- null}
r -t 4.0932 -s 1 -d 2 -p tcp -e 1040 -c 0 -i 2 -a 0 -x {0.0 4.0 1 ------- null}
+ -t 4.0932 -s 2 -d 3 -p tcp -e 1040 -c 0 -i 2 -a 0 -x {0.0 4.0 1 ------- null}
- -t 4.0932 -s 2 -d 3 -p tcp -e 1040 -c 0 -i 2 -a 0 -x {0.0 4.0 1 ------- null}
h -t 4.0932 -s 2 -d 3 -p tcp -e 1040 -c 0 -i 2 -a 0 -x {0.0 4.0 -1 ------- null}
r -t 4.9252 -s 1 -d 2 -p tcp -e 1040 -c 0 -i 3 -a 0 -x {0.0 4.0 2 ------- null}
+ -t 4.9252 -s 2 -d 3 -p tcp -e 1040 -c 0 -i 3 -a 0 -x {0.0 4.0 2 ------- null}
- -t 4.9252 -s 2 -d 3 -p tcp -e 1040 -c 0 -i 3 -a 0 -x {0.0 4.0 2 ------- null}
h -t 4.9252 -s 2 -d 3 -p tcp -e 1040 -c 0 -i 3 -a 0 -x {0.0 4.0 -1 ------- null}
r -t 5.4252 -s 2 -d 3 -p tcp -e 1040 -c 0 -i 2 -a 0 -x {0.0 4.0 1 ------- null}
+ -t 5.4252 -s 3 -d 4 -p tcp -e 1040 -c 0 -i 2 -a 0 -x {0.0 4.0 1 ------- null}
- -t 5.4252 -s 3 -d 4 -p tcp -e 1040 -c 0 -i 2 -a 0 -x {0.0 4.0 1 ------- null}
h -t 5.4252 -s 3 -d 4 -p tcp -e 1040 -c 0 -i 2 -a 0 -x {0.0 4.0 -1 ------- null}
r -t 5.47797333333333 -s 3 -d 4 -p tcp -e 1040 -c 0 -i 2 -a 0 -x {0.0 4.0 1 ------- null}
+ -t 5.47797333333333 -s 4 -d 3 -p ack -e 40 -c 0 -i 4 -a 0 -x {4.0 0.0 1 ------- null}
- -t 5.47797333333333 -s 4 -d 3 -p ack -e 40 -c 0 -i 4 -a 0 -x {4.0 0.0 1 ------- null}
h -t 5.47797333333333 -s 4 -d 3 -p ack -e 40 -c 0 -i 4 -a 0 -x {4.0 0.0 -1 ------- null}
r -t 5.52808 -s 4 -d 3 -p ack -e 40 -c 0 -i 4 -a 0 -x {4.0 0.0 1 ------- null}
+ -t 5.52808 -s 3 -d 2 -p ack -e 40 -c 0 -i 4 -a 0 -x {4.0 0.0 1 ------- null}
- -t 5.52808 -s 3 -d 2 -p ack -e 40 -c 0 -i 4 -a 0 -x {4.0 0.0 1 ------- null}
h -t 5.52808 -s 3 -d 2 -p ack -e 40 -c 0 -i 4 -a 0 -x {4.0 0.0 -1 ------- null}
r -t 6.06008 -s 3 -d 2 -p ack -e 40 -c 0 -i 4 -a 0 -x {4.0 0.0 1 ------- null}
+ -t 6.06008 -s 2 -d 1 -p ack -e 40 -c 0 -i 4 -a 0 -x {4.0 0.0 1 ------- null}
- -t 6.06008 -s 2 -d 1 -p ack -e 40 -c 0 -i 4 -a 0 -x {4.0 0.0 1 ------- null}
h -t 6.06008 -s 2 -d 1 -p ack -e 40 -c 0 -i 4 -a 0 -x {4.0 0.0 -1 ------- null}
r -t 6.2572 -s 2 -d 3 -p tcp -e 1040 -c 0 -i 3 -a 0 -x {0.0 4.0 2 ------- null}
+ -t 6.2572 -s 3 -d 4 -p tcp -e 1040 -c 0 -i 3 -a 0 -x {0.0 4.0 2 ------- null}
- -t 6.2572 -s 3 -d 4 -p tcp -e 1040 -c 0 -i 3 -a 0 -x {0.0 4.0 2 ------- null}
h -t 6.2572 -s 3 -d 4 -p tcp -e 1040 -c 0 -i 3 -a 0 -x {0.0 4.0 -1 ------- null}
r -t 6.30997333333333 -s 3 -d 4 -p tcp -e 1040 -c 0 -i 3 -a 0 -x {0.0 4.0 2 ------- null}
+ -t 6.30997333333333 -s 4 -d 3 -p ack -e 40 -c 0 -i 5 -a 0 -x {4.0 0.0 2 ------- null}
- -t 6.30997333333333 -s 4 -d 3 -p ack -e 40 -c 0 -i 5 -a 0 -x {4.0 0.0 2 ------- null}
h -t 6.30997333333333 -s 4 -d 3 -p ack -e 40 -c 0 -i 5 -a 0 -x {4.0 0.0 -1 ------- null}
r -t 6.36008 -s 4 -d 3 -p ack -e 40 -c 0 -i 5 -a 0 -x {4.0 0.0 2 ------- null}
+ -t 6.36008 -s 3 -d 2 -p ack -e 40 -c 0 -i 5 -a 0 -x {4.0 0.0 2 ------- null}
- -t 6.36008 -s 3 -d 2 -p ack -e 40 -c 0 -i 5 -a 0 -x {4.0 0.0 2 ------- null}
h -t 6.36008 -s 3 -d 2 -p ack -e 40 -c 0 -i 5 -a 0 -x {4.0 0.0 -1 ------- null}
r -t 6.59208 -s 2 -d 1 -p ack -e 40 -c 0 -i 4 -a 0 -x {4.0 0.0 1 ------- null}
+ -t 6.59208 -s 1 -d 0 -p ack -e 40 -c 0 -i 4 -a 0 -x {4.0 0.0 1 ------- null}
- -t 6.59208 -s 1 -d 0 -p ack -e 40 -c 0 -i 4 -a 0 -x {4.0 0.0 1 ------- null}
h -t 6.59208 -s 1 -d 0 -p ack -e 40 -c 0 -i 4 -a 0 -x {4.0 0.0 -1 ------- null}
r -t 6.60218666666667 -s 1 -d 0 -p ack -e 40 -c 0 -i 4 -a 0 -x {4.0 0.0 1 ------- null}
+ -t 6.60218666666667 -s 0 -d 1 -p tcp -e 1040 -c 0 -i 6 -a 0 -x {0.0 4.0 3 ------- null}
- -t 6.60218666666667 -s 0 -d 1 -p tcp -e 1040 -c 0 -i 6 -a 0 -x {0.0 4.0 3 ------- null}
h -t 6.60218666666667 -s 0 -d 1 -p tcp -e 1040 -c 0 -i 6 -a 0 -x {0.0 4.0 -1 ------- null}
+ -t 6.60218666666667 -s 0 -d 1 -p tcp -e 1040 -c 0 -i 7 -a 0 -x {0.0 4.0 4 ------- null}
- -t 6.60496 -s 0 -d 1 -p tcp -e 1040 -c 0 -i 7 -a 0 -x {0.0 4.0 4 ------- null}
h -t 6.60496 -s 0 -d 1 -p tcp -e 1040 -c 0 -i 7 -a 0 -x {0.0 4.0 -1 ------- null}
r -t 6.61496 -s 0 -d 1 -p tcp -e 1040 -c 0 -i 6 -a 0 -x {0.0 4.0 3 ------- null}
+ -t 6.61496 -s 1 -d 2 -p tcp -e 1040 -c 0 -i 6 -a 0 -x {0.0 4.0 3 ------- null}
- -t 6.61496 -s 1 -d 2 -p tcp -e 1040 -c 0 -i 6 -a 0 -x {0.0 4.0 3 ------- null}
h -t 6.61496 -s 1 -d 2 -p tcp -e 1040 -c 0 -i 6 -a 0 -x {0.0 4.0 -1 ------- null}
r -t 6.61773333333333 -s 0 -d 1 -p tcp -e 1040 -c 0 -i 7 -a 0 -x {0.0 4.0 4 ------- null}
+ -t 6.61773333333333 -s 1 -d 2 -p tcp -e 1040 -c 0 -i 7 -a 0 -x {0.0 4.0 4 ------- null}
r -t 6.89208 -s 3 -d 2 -p ack -e 40 -c 0 -i 5 -a 0 -x {4.0 0.0 2 ------- null}
+ -t 6.89208 -s 2 -d 1 -p ack -e 40 -c 0 -i 5 -a 0 -x {4.0 0.0 2 ------- null}
- -t 6.89208 -s 2 -d 1 -p ack -e 40 -c 0 -i 5 -a 0 -x {4.0 0.0 2 ------- null}
h -t 6.89208 -s 2 -d 1 -p ack -e 40 -c 0 -i 5 -a 0 -x {4.0 0.0 -1 ------- null}
r -t 7.42408 -s 2 -d 1 -p ack -e 40 -c 0 -i 5 -a 0 -x {4.0 0.0 2 ------- null}
+ -t 7.42408 -s 1 -d 0 -p ack -e 40 -c 0 -i 5 -a 0 -x {4.0 0.0 2 ------- null}
- -t 7.42408 -s 1 -d 0 -p ack -e 40 -c 0 -i 5 -a 0 -x {4.0 0.0 2 ------- null}
h -t 7.42408 -s 1 -d 0 -p ack -e 40 -c 0 -i 5 -a 0 -x {4.0 0.0 -1 ------- null}
r -t 7.43418666666667 -s 1 -d 0 -p ack -e 40 -c 0 -i 5 -a 0 -x {4.0 0.0 2 ------- null}
+ -t 7.43418666666667 -s 0 -d 1 -p tcp -e 1040 -c 0 -i 8 -a 0 -x {0.0 4.0 5 ------- null}
- -t 7.43418666666667 -s 0 -d 1 -p tcp -e 1040 -c 0 -i 8 -a 0 -x {0.0 4.0 5 ------- null}
h -t 7.43418666666667 -s 0 -d 1 -p tcp -e 1040 -c 0 -i 8 -a 0 -x {0.0 4.0 -1 ------- null}
+ -t 7.43418666666667 -s 0 -d 1 -p tcp -e 1040 -c 0 -i 9 -a 0 -x {0.0 4.0 6 ------- null}
- -t 7.43696 -s 0 -d 1 -p tcp -e 1040 -c 0 -i 9 -a 0 -x {0.0 4.0 6 ------- null}
h -t 7.43696 -s 0 -d 1 -p tcp -e 1040 -c 0 -i 9 -a 0 -x {0.0 4.0 -1 ------- null}
- -t 7.44696 -s 1 -d 2 -p tcp -e 1040 -c 0 -i 7 -a 0 -x {0.0 4.0 4 ------- null}
h -t 7.44696 -s 1 -d 2 -p tcp -e 1040 -c 0 -i 7 -a 0 -x {0.0 4.0 -1 ------- null}
r -t 7.44696 -s 0 -d 1 -p tcp -e 1040 -c 0 -i 8 -a 0 -x {0.0 4.0 5 ------- null}
+ -t 7.44696 -s 1 -d 2 -p tcp -e 1040 -c 0 -i 8 -a 0 -x {0.0 4.0 5 ------- null}
r -t 7.44973333333333 -s 0 -d 1 -p tcp -e 1040 -c 0 -i 9 -a 0 -x {0.0 4.0 6 ------- null}
+ -t 7.44973333333333 -s 1 -d 2 -p tcp -e 1040 -c 0 -i 9 -a 0 -x {0.0 4.0 6 ------- null}
r -t 7.94696 -s 1 -d 2 -p tcp -e 1040 -c 0 -i 6 -a 0 -x {0.0 4.0 3 ------- null}
+ -t 7.94696 -s 2 -d 3 -p tcp -e 1040 -c 0 -i 6 -a 0 -x {0.0 4.0 3 ------- null}
- -t 7.94696 -s 2 -d 3 -p tcp -e 1040 -c 0 -i 6 -a 0 -x {0.0 4.0 3 ------- null}
h -t 7.94696 -s 2 -d 3 -p tcp -e 1040 -c 0 -i 6 -a 0 -x {0.0 4.0 -1 ------- null}
- -t 8.27896 -s 1 -d 2 -p tcp -e 1040 -c 0 -i 8 -a 0 -x {0.0 4.0 5 ------- null}
h -t 8.27896 -s 1 -d 2 -p tcp -e 1040 -c 0 -i 8 -a 0 -x {0.0 4.0 -1 ------- null}
r -t 8.77896 -s 1 -d 2 -p tcp -e 1040 -c 0 -i 7 -a 0 -x {0.0 4.0 4 ------- null}
+ -t 8.77896 -s 2 -d 3 -p tcp -e 1040 -c 0 -i 7 -a 0 -x {0.0 4.0 4 ------- null}
- -t 8.77896 -s 2 -d 3 -p tcp -e 1040 -c 0 -i 7 -a 0 -x {0.0 4.0 4 ------- null}
h -t 8.77896 -s 2 -d 3 -p tcp -e 1040 -c 0 -i 7 -a 0 -x {0.0 4.0 -1 ------- null}
- -t 9.11096 -s 1 -d 2 -p tcp -e 1040 -c 0 -i 9 -a 0 -x {0.0 4.0 6 ------- null}
h -t 9.11096 -s 1 -d 2 -p tcp -e 1040 -c 0 -i 9 -a 0 -x {0.0 4.0 -1 ------- null}
r -t 9.27896 -s 2 -d 3 -p tcp -e 1040 -c 0 -i 6 -a 0 -x {0.0 4.0 3 ------- null}
+ -t 9.27896 -s 3 -d 4 -p tcp -e 1040 -c 0 -i 6 -a 0 -x {0.0 4.0 3 ------- null}
- -t 9.27896 -s 3 -d 4 -p tcp -e 1040 -c 0 -i 6 -a 0 -x {0.0 4.0 3 ------- null}
h -t 9.27896 -s 3 -d 4 -p tcp -e 1040 -c 0 -i 6 -a 0 -x {0.0 4.0 -1 ------- null}
r -t 9.33173333333333 -s 3 -d 4 -p tcp -e 1040 -c 0 -i 6 -a 0 -x {0.0 4.0 3 ------- null}
+ -t 9.33173333333333 -s 4 -d 3 -p ack -e 40 -c 0 -i 10 -a 0 -x {4.0 0.0 3 ------- null}
- -t 9.33173333333333 -s 4 -d 3 -p ack -e 40 -c 0 -i 10 -a 0 -x {4.0 0.0 3 ------- null}
h -t 9.33173333333333 -s 4 -d 3 -p ack -e 40 -c 0 -i 10 -a 0 -x {4.0 0.0 -1 ------- null}
r -t 9.38184 -s 4 -d 3 -p ack -e 40 -c 0 -i 10 -a 0 -x {4.0 0.0 3 ------- null}
+ -t 9.38184 -s 3 -d 2 -p ack -e 40 -c 0 -i 10 -a 0 -x {4.0 0.0 3 ------- null}
- -t 9.38184 -s 3 -d 2 -p ack -e 40 -c 0 -i 10 -a 0 -x {4.0 0.0 3 ------- null}
h -t 9.38184 -s 3 -d 2 -p ack -e 40 -c 0 -i 10 -a 0 -x {4.0 0.0 -1 ------- null}
r -t 9.61096 -s 1 -d 2 -p tcp -e 1040 -c 0 -i 8 -a 0 -x {0.0 4.0 5 ------- null}
+ -t 9.61096 -s 2 -d 3 -p tcp -e 1040 -c 0 -i 8 -a 0 -x {0.0 4.0 5 ------- null}
- -t 9.61096 -s 2 -d 3 -p tcp -e 1040 -c 0 -i 8 -a 0 -x {0.0 4.0 5 ------- null}
h -t 9.61096 -s 2 -d 3 -p tcp -e 1040 -c 0 -i 8 -a 0 -x {0.0 4.0 -1 ------- null}
r -t 9.91384 -s 3 -d 2 -p ack -e 40 -c 0 -i 10 -a 0 -x {4.0 0.0 3 ------- null}
+ -t 9.91384 -s 2 -d 1 -p ack -e 40 -c 0 -i 10 -a 0 -x {4.0 0.0 3 ------- null}
- -t 9.91384 -s 2 -d 1 -p ack -e 40 -c 0 -i 10 -a 0 -x {4.0 0.0 3 ------- null}
h -t 9.91384 -s 2 -d 1 -p ack -e 40 -c 0 -i 10 -a 0 -x {4.0 0.0 -1 ------- null}
r -t 10.11096 -s 2 -d 3 -p tcp -e 1040 -c 0 -i 7 -a 0 -x {0.0 4.0 4 ------- null}
+ -t 10.11096 -s 3 -d 4 -p tcp -e 1040 -c 0 -i 7 -a 0 -x {0.0 4.0 4 ------- null}
- -t 10.11096 -s 3 -d 4 -p tcp -e 1040 -c 0 -i 7 -a 0 -x {0.0 4.0 4 ------- null}
h -t 10.11096 -s 3 -d 4 -p tcp -e 1040 -c 0 -i 7 -a 0 -x {0.0 4.0 -1 ------- null}
r -t 10.1637333333333 -s 3 -d 4 -p tcp -e 1040 -c 0 -i 7 -a 0 -x {0.0 4.0 4 ------- null}
+ -t 10.1637333333333 -s 4 -d 3 -p ack -e 40 -c 0 -i 11 -a 0 -x {4.0 0.0 4 ------- null}
- -t 10.1637333333333 -s 4 -d 3 -p ack -e 40 -c 0 -i 11 -a 0 -x {4.0 0.0 4 ------- null}
h -t 10.1637333333333 -s 4 -d 3 -p ack -e 40 -c 0 -i 11 -a 0 -x {4.0 0.0 -1 ------- null}
r -t 10.21384 -s 4 -d 3 -p ack -e 40 -c 0 -i 11 -a 0 -x {4.0 0.0 4 ------- null}
+ -t 10.21384 -s 3 -d 2 -p ack -e 40 -c 0 -i 11 -a 0 -x {4.0 0.0 4 ------- null}
- -t 10.21384 -s 3 -d 2 -p ack -e 40 -c 0 -i 11 -a 0 -x {4.0 0.0 4 ------- null}
h -t 10.21384 -s 3 -d 2 -p ack -e 40 -c 0 -i 11 -a 0 -x {4.0 0.0 -1 ------- null}
r -t 10.44296 -s 1 -d 2 -p tcp -e 1040 -c 0 -i 9 -a 0 -x {0.0 4.0 6 ------- null}
+ -t 10.44296 -s 2 -d 3 -p tcp -e 1040 -c 0 -i 9 -a 0 -x {0.0 4.0 6 ------- null}
- -t 10.44296 -s 2 -d 3 -p tcp -e 1040 -c 0 -i 9 -a 0 -x {0.0 4.0 6 ------- null}
h -t 10.44296 -s 2 -d 3 -p tcp -e 1040 -c 0 -i 9 -a 0 -x {0.0 4.0 -1 ------- null}
r -t 10.44584 -s 2 -d 1 -p ack -e 40 -c 0 -i 10 -a 0 -x {4.0 0.0 3 ------- null}
+ -t 10.44584 -s 1 -d 0 -p ack -e 40 -c 0 -i 10 -a 0 -x {4.0 0.0 3 ------- null}
- -t 10.44584 -s 1 -d 0 -p ack -e 40 -c 0 -i 10 -a 0 -x {4.0 0.0 3 ------- null}
h -t 10.44584 -s 1 -d 0 -p ack -e 40 -c 0 -i 10 -a 0 -x {4.0 0.0 -1 ------- null}
r -t 10.4559466666667 -s 1 -d 0 -p ack -e 40 -c 0 -i 10 -a 0 -x {4.0 0.0 3 ------- null}
+ -t 10.4559466666667 -s 0 -d 1 -p tcp -e 1040 -c 0 -i 12 -a 0 -x {0.0 4.0 7 ------- null}
- -t 10.4559466666667 -s 0 -d 1 -p tcp -e 1040 -c 0 -i 12 -a 0 -x {0.0 4.0 7 ------- null}
h -t 10.4559466666667 -s 0 -d 1 -p tcp -e 1040 -c 0 -i 12 -a 0 -x {0.0 4.0 -1 ------- null}
+ -t 10.4559466666667 -s 0 -d 1 -p tcp -e 1040 -c 0 -i 13 -a 0 -x {0.0 4.0 8 ------- null}
- -t 10.45872 -s 0 -d 1 -p tcp -e 1040 -c 0 -i 13 -a 0 -x {0.0 4.0 8 ------- null}
h -t 10.45872 -s 0 -d 1 -p tcp -e 1040 -c 0 -i 13 -a 0 -x {0.0 4.0 -1 ------- null}
r -t 10.46872 -s 0 -d 1 -p tcp -e 1040 -c 0 -i 12 -a 0 -x {0.0 4.0 7 ------- null}
+ -t 10.46872 -s 1 -d 2 -p tcp -e 1040 -c 0 -i 12 -a 0 -x {0.0 4.0 7 ------- null}
- -t 10.46872 -s 1 -d 2 -p tcp -e 1040 -c 0 -i 12 -a 0 -x {0.0 4.0 7 ------- null}
h -t 10.46872 -s 1 -d 2 -p tcp -e 1040 -c 0 -i 12 -a 0 -x {0.0 4.0 -1 ------- null}
r -t 10.4714933333333 -s 0 -d 1 -p tcp -e 1040 -c 0 -i 13 -a 0 -x {0.0 4.0 8 ------- null}
+ -t 10.4714933333333 -s 1 -d 2 -p tcp -e 1040 -c 0 -i 13 -a 0 -x {0.0 4.0 8 ------- null}
r -t 10.74584 -s 3 -d 2 -p ack -e 40 -c 0 -i 11 -a 0 -x {4.0 0.0 4 ------- null}
+ -t 10.74584 -s 2 -d 1 -p ack -e 40 -c 0 -i 11 -a 0 -x {4.0 0.0 4 ------- null}
- -t 10.74584 -s 2 -d 1 -p ack -e 40 -c 0 -i 11 -a 0 -x {4.0 0.0 4 ------- null}
h -t 10.74584 -s 2 -d 1 -p ack -e 40 -c 0 -i 11 -a 0 -x {4.0 0.0 -1 ------- null}
r -t 10.94296 -s 2 -d 3 -p tcp -e 1040 -c 0 -i 8 -a 0 -x {0.0 4.0 5 ------- null}
+ -t 10.94296 -s 3 -d 4 -p tcp -e 1040 -c 0 -i 8 -a 0 -x {0.0 4.0 5 ------- null}
- -t 10.94296 -s 3 -d 4 -p tcp -e 1040 -c 0 -i 8 -a 0 -x {0.0 4.0 5 ------- null}
h -t 10.94296 -s 3 -d 4 -p tcp -e 1040 -c 0 -i 8 -a 0 -x {0.0 4.0 -1 ------- null}
r -t 10.9957333333333 -s 3 -d 4 -p tcp -e 1040 -c 0 -i 8 -a 0 -x {0.0 4.0 5 ------- null}
+ -t 10.9957333333333 -s 4 -d 3 -p ack -e 40 -c 0 -i 14 -a 0 -x {4.0 0.0 5 ------- null}
- -t 10.9957333333333 -s 4 -d 3 -p ack -e 40 -c 0 -i 14 -a 0 -x {4.0 0.0 5 ------- null}
h -t 10.9957333333333 -s 4 -d 3 -p ack -e 40 -c 0 -i 14 -a 0 -x {4.0 0.0 -1 ------- null}
r -t 11.04584 -s 4 -d 3 -p ack -e 40 -c 0 -i 14 -a 0 -x {4.0 0.0 5 ------- null}
+ -t 11.04584 -s 3 -d 2 -p ack -e 40 -c 0 -i 14 -a 0 -x {4.0 0.0 5 ------- null}
- -t 11.04584 -s 3 -d 2 -p ack -e 40 -c 0 -i 14 -a 0 -x {4.0 0.0 5 ------- null}
h -t 11.04584 -s 3 -d 2 -p ack -e 40 -c 0 -i 14 -a 0 -x {4.0 0.0 -1 ------- null}
r -t 11.27784 -s 2 -d 1 -p ack -e 40 -c 0 -i 11 -a 0 -x {4.0 0.0 4 ------- null}
+ -t 11.27784 -s 1 -d 0 -p ack -e 40 -c 0 -i 11 -a 0 -x {4.0 0.0 4 ------- null}
- -t 11.27784 -s 1 -d 0 -p ack -e 40 -c 0 -i 11 -a 0 -x {4.0 0.0 4 ------- null}
h -t 11.27784 -s 1 -d 0 -p ack -e 40 -c 0 -i 11 -a 0 -x {4.0 0.0 -1 ------- null}
r -t 11.2879466666667 -s 1 -d 0 -p ack -e 40 -c 0 -i 11 -a 0 -x {4.0 0.0 4 ------- null}
+ -t 11.2879466666667 -s 0 -d 1 -p tcp -e 1040 -c 0 -i 15 -a 0 -x {0.0 4.0 9 ------- null}
- -t 11.2879466666667 -s 0 -d 1 -p tcp -e 1040 -c 0 -i 15 -a 0 -x {0.0 4.0 9 ------- null}
h -t 11.2879466666667 -s 0 -d 1 -p tcp -e 1040 -c 0 -i 15 -a 0 -x {0.0 4.0 -1 ------- null}
+ -t 11.2879466666667 -s 0 -d 1 -p tcp -e 1040 -c 0 -i 16 -a 0 -x {0.0 4.0 10 ------- null}
- -t 11.29072 -s 0 -d 1 -p tcp -e 1040 -c 0 -i 16 -a 0 -x {0.0 4.0 10 ------- null}
h -t 11.29072 -s 0 -d 1 -p tcp -e 1040 -c 0 -i 16 -a 0 -x {0.0 4.0 -1 ------- null}
r -t 11.30072 -s 0 -d 1 -p tcp -e 1040 -c 0 -i 15 -a 0 -x {0.0 4.0 9 ------- null}
+ -t 11.30072 -s 1 -d 2 -p tcp -e 1040 -c 0 -i 15 -a 0 -x {0.0 4.0 9 ------- null}
- -t 11.30072 -s 1 -d 2 -p tcp -e 1040 -c 0 -i 13 -a 0 -x {0.0 4.0 8 ------- null}
h -t 11.30072 -s 1 -d 2 -p tcp -e 1040 -c 0 -i 13 -a 0 -x {0.0 4.0 -1 ------- null}
r -t 11.3034933333333 -s 0 -d 1 -p tcp -e 1040 -c 0 -i 16 -a 0 -x {0.0 4.0 10 ------- null}
+ -t 11.3034933333333 -s 1 -d 2 -p tcp -e 1040 -c 0 -i 16 -a 0 -x {0.0 4.0 10 ------- null}
r -t 11.57784 -s 3 -d 2 -p ack -e 40 -c 0 -i 14 -a 0 -x {4.0 0.0 5 ------- null}
+ -t 11.57784 -s 2 -d 1 -p ack -e 40 -c 0 -i 14 -a 0 -x {4.0 0.0 5 ------- null}
- -t 11.57784 -s 2 -d 1 -p ack -e 40 -c 0 -i 14 -a 0 -x {4.0 0.0 5 ------- null}
h -t 11.57784 -s 2 -d 1 -p ack -e 40 -c 0 -i 14 -a 0 -x {4.0 0.0 -1 ------- null}
r -t 11.77496 -s 2 -d 3 -p tcp -e 1040 -c 0 -i 9 -a 0 -x {0.0 4.0 6 ------- null}
+ -t 11.77496 -s 3 -d 4 -p tcp -e 1040 -c 0 -i 9 -a 0 -x {0.0 4.0 6 ------- null}
- -t 11.77496 -s 3 -d 4 -p tcp -e 1040 -c 0 -i 9 -a 0 -x {0.0 4.0 6 ------- null}
h -t 11.77496 -s 3 -d 4 -p tcp -e 1040 -c 0 -i 9 -a 0 -x {0.0 4.0 -1 ------- null}
r -t 11.80072 -s 1 -d 2 -p tcp -e 1040 -c 0 -i 12 -a 0 -x {0.0 4.0 7 ------- null}
+ -t 11.80072 -s 2 -d 3 -p tcp -e 1040 -c 0 -i 12 -a 0 -x {0.0 4.0 7 ------- null}
- -t 11.80072 -s 2 -d 3 -p tcp -e 1040 -c 0 -i 12 -a 0 -x {0.0 4.0 7 ------- null}
h -t 11.80072 -s 2 -d 3 -p tcp -e 1040 -c 0 -i 12 -a 0 -x {0.0 4.0 -1 ------- null}
r -t 11.8277333333333 -s 3 -d 4 -p tcp -e 1040 -c 0 -i 9 -a 0 -x {0.0 4.0 6 ------- null}
+ -t 11.8277333333333 -s 4 -d 3 -p ack -e 40 -c 0 -i 17 -a 0 -x {4.0 0.0 6 ------- null}
- -t 11.8277333333333 -s 4 -d 3 -p ack -e 40 -c 0 -i 17 -a 0 -x {4.0 0.0 6 ------- null}
h -t 11.8277333333333 -s 4 -d 3 -p ack -e 40 -c 0 -i 17 -a 0 -x {4.0 0.0 -1 ------- null}
r -t 11.87784 -s 4 -d 3 -p ack -e 40 -c 0 -i 17 -a 0 -x {4.0 0.0 6 ------- null}
+ -t 11.87784 -s 3 -d 2 -p ack -e 40 -c 0 -i 17 -a 0 -x {4.0 0.0 6 ------- null}
- -t 11.87784 -s 3 -d 2 -p ack -e 40 -c 0 -i 17 -a 0 -x {4.0 0.0 6 ------- null}
h -t 11.87784 -s 3 -d 2 -p ack -e 40 -c 0 -i 17 -a 0 -x {4.0 0.0 -1 ------- null}
r -t 12.10984 -s 2 -d 1 -p ack -e 40 -c 0 -i 14 -a 0 -x {4.0 0.0 5 ------- null}
+ -t 12.10984 -s 1 -d 0 -p ack -e 40 -c 0 -i 14 -a 0 -x {4.0 0.0 5 ------- null}
- -t 12.10984 -s 1 -d 0 -p ack -e 40 -c 0 -i 14 -a 0 -x {4.0 0.0 5 ------- null}
h -t 12.10984 -s 1 -d 0 -p ack -e 40 -c 0 -i 14 -a 0 -x {4.0 0.0 -1 ------- null}
r -t 12.1199466666667 -s 1 -d 0 -p ack -e 40 -c 0 -i 14 -a 0 -x {4.0 0.0 5 ------- null}
+ -t 12.1199466666667 -s 0 -d 1 -p tcp -e 1040 -c 0 -i 18 -a 0 -x {0.0 4.0 11 ------- null}
- -t 12.1199466666667 -s 0 -d 1 -p tcp -e 1040 -c 0 -i 18 -a 0 -x {0.0 4.0 11 ------- null}
h -t 12.1199466666667 -s 0 -d 1 -p tcp -e 1040 -c 0 -i 18 -a 0 -x {0.0 4.0 -1 ------- null}
+ -t 12.1199466666667 -s 0 -d 1 -p tcp -e 1040 -c 0 -i 19 -a 0 -x {0.0 4.0 12 ------- null}
- -t 12.12272 -s 0 -d 1 -p tcp -e 1040 -c 0 -i 19 -a 0 -x {0.0 4.0 12 ------- null}
h -t 12.12272 -s 0 -d 1 -p tcp -e 1040 -c 0 -i 19 -a 0 -x {0.0 4.0 -1 ------- null}
r -t 12.13272 -s 0 -d 1 -p tcp -e 1040 -c 0 -i 18 -a 0 -x {0.0 4.0 11 ------- null}
+ -t 12.13272 -s 1 -d 2 -p tcp -e 1040 -c 0 -i 18 -a 0 -x {0.0 4.0 11 ------- null}
- -t 12.13272 -s 1 -d 2 -p tcp -e 1040 -c 0 -i 15 -a 0 -x {0.0 4.0 9 ------- null}
h -t 12.13272 -s 1 -d 2 -p tcp -e 1040 -c 0 -i 15 -a 0 -x {0.0 4.0 -1 ------- null}
r -t 12.1354933333333 -s 0 -d 1 -p tcp -e 1040 -c 0 -i 19 -a 0 -x {0.0 4.0 12 ------- null}
+ -t 12.1354933333333 -s 1 -d 2 -p tcp -e 1040 -c 0 -i 19 -a 0 -x {0.0 4.0 12 ------- null}
r -t 12.40984 -s 3 -d 2 -p ack -e 40 -c 0 -i 17 -a 0 -x {4.0 0.0 6 ------- null}
+ -t 12.40984 -s 2 -d 1 -p ack -e 40 -c 0 -i 17 -a 0 -x {4.0 0.0 6 ------- null}
- -t 12.40984 -s 2 -d 1 -p ack -e 40 -c 0 -i 17 -a 0 -x {4.0 0.0 6 ------- null}
h -t 12.40984 -s 2 -d 1 -p ack -e 40 -c 0 -i 17 -a 0 -x {4.0 0.0 -1 ------- null}
r -t 12.63272 -s 1 -d 2 -p tcp -e 1040 -c 0 -i 13 -a 0 -x {0.0 4.0 8 ------- null}
+ -t 12.63272 -s 2 -d 3 -p tcp -e 1040 -c 0 -i 13 -a 0 -x {0.0 4.0 8 ------- null}
- -t 12.63272 -s 2 -d 3 -p tcp -e 1040 -c 0 -i 13 -a 0 -x {0.0 4.0 8 ------- null}
h -t 12.63272 -s 2 -d 3 -p tcp -e 1040 -c 0 -i 13 -a 0 -x {0.0 4.0 -1 ------- null}
r -t 12.94184 -s 2 -d 1 -p ack -e 40 -c 0 -i 17 -a 0 -x {4.0 0.0 6 ------- null}
+ -t 12.94184 -s 1 -d 0 -p ack -e 40 -c 0 -i 17 -a 0 -x {4.0 0.0 6 ------- null}
- -t 12.94184 -s 1 -d 0 -p ack -e 40 -c 0 -i 17 -a 0 -x {4.0 0.0 6 ------- null}
h -t 12.94184 -s 1 -d 0 -p ack -e 40 -c 0 -i 17 -a 0 -x {4.0 0.0 -1 ------- null}
r -t 12.9519466666667 -s 1 -d 0 -p ack -e 40 -c 0 -i 17 -a 0 -x {4.0 0.0 6 ------- null}
+ -t 12.9519466666667 -s 0 -d 1 -p tcp -e 1040 -c 0 -i 20 -a 0 -x {0.0 4.0 13 ------- null}
- -t 12.9519466666667 -s 0 -d 1 -p tcp -e 1040 -c 0 -i 20 -a 0 -x {0.0 4.0 13 ------- null}
h -t 12.9519466666667 -s 0 -d 1 -p tcp -e 1040 -c 0 -i 20 -a 0 -x {0.0 4.0 -1 ------- null}
+ -t 12.9519466666667 -s 0 -d 1 -p tcp -e 1040 -c 0 -i 21 -a 0 -x {0.0 4.0 14 ------- null}
- -t 12.95472 -s 0 -d 1 -p tcp -e 1040 -c 0 -i 21 -a 0 -x {0.0 4.0 14 ------- null}
h -t 12.95472 -s 0 -d 1 -p tcp -e 1040 -c 0 -i 21 -a 0 -x {0.0 4.0 -1 ------- null}
r -t 12.96472 -s 0 -d 1 -p tcp -e 1040 -c 0 -i 20 -a 0 -x {0.0 4.0 13 ------- null}
+ -t 12.96472 -s 1 -d 2 -p tcp -e 1040 -c 0 -i 20 -a 0 -x {0.0 4.0 13 ------- null}
- -t 12.96472 -s 1 -d 2 -p tcp -e 1040 -c 0 -i 16 -a 0 -x {0.0 4.0 10 ------- null}
h -t 12.96472 -s 1 -d 2 -p tcp -e 1040 -c 0 -i 16 -a 0 -x {0.0 4.0 -1 ------- null}
r -t 12.9674933333333 -s 0 -d 1 -p tcp -e 1040 -c 0 -i 21 -a 0 -x {0.0 4.0 14 ------- null}
+ -t 12.9674933333333 -s 1 -d 2 -p tcp -e 1040 -c 0 -i 21 -a 0 -x {0.0 4.0 14 ------- null}
r -t 13.13272 -s 2 -d 3 -p tcp -e 1040 -c 0 -i 12 -a 0 -x {0.0 4.0 7 ------- null}
+ -t 13.13272 -s 3 -d 4 -p tcp -e 1040 -c 0 -i 12 -a 0 -x {0.0 4.0 7 ------- null}
- -t 13.13272 -s 3 -d 4 -p tcp -e 1040 -c 0 -i 12 -a 0 -x {0.0 4.0 7 ------- null}
h -t 13.13272 -s 3 -d 4 -p tcp -e 1040 -c 0 -i 12 -a 0 -x {0.0 4.0 -1 ------- null}
r -t 13.1854933333333 -s 3 -d 4 -p tcp -e 1040 -c 0 -i 12 -a 0 -x {0.0 4.0 7 ------- null}
+ -t 13.1854933333333 -s 4 -d 3 -p ack -e 40 -c 0 -i 22 -a 0 -x {4.0 0.0 7 ------- null}
- -t 13.1854933333333 -s 4 -d 3 -p ack -e 40 -c 0 -i 22 -a 0 -x {4.0 0.0 7 ------- null}
h -t 13.1854933333333 -s 4 -d 3 -p ack -e 40 -c 0 -i 22 -a 0 -x {4.0 0.0 -1 ------- null}
r -t 13.2356 -s 4 -d 3 -p ack -e 40 -c 0 -i 22 -a 0 -x {4.0 0.0 7 ------- null}
+ -t 13.2356 -s 3 -d 2 -p ack -e 40 -c 0 -i 22 -a 0 -x {4.0 0.0 7 ------- null}
- -t 13.2356 -s 3 -d 2 -p ack -e 40 -c 0 -i 22 -a 0 -x {4.0 0.0 7 ------- null}
h -t 13.2356 -s 3 -d 2 -p ack -e 40 -c 0 -i 22 -a 0 -x {4.0 0.0 -1 ------- null}
r -t 13.46472 -s 1 -d 2 -p tcp -e 1040 -c 0 -i 15 -a 0 -x {0.0 4.0 9 ------- null}
+ -t 13.46472 -s 2 -d 3 -p tcp -e 1040 -c 0 -i 15 -a 0 -x {0.0 4.0 9 ------- null}
- -t 13.46472 -s 2 -d 3 -p tcp -e 1040 -c 0 -i 15 -a 0 -x {0.0 4.0 9 ------- null}
h -t 13.46472 -s 2 -d 3 -p tcp -e 1040 -c 0 -i 15 -a 0 -x {0.0 4.0 -1 ------- null}
r -t 13.7676 -s 3 -d 2 -p ack -e 40 -c 0 -i 22 -a 0 -x {4.0 0.0 7 ------- null}
+ -t 13.7676 -s 2 -d 1 -p ack -e 40 -c 0 -i 22 -a 0 -x {4.0 0.0 7 ------- null}
- -t 13.7676 -s 2 -d 1 -p ack -e 40 -c 0 -i 22 -a 0 -x {4.0 0.0 7 ------- null}
h -t 13.7676 -s 2 -d 1 -p ack -e 40 -c 0 -i 22 -a 0 -x {4.0 0.0 -1 ------- null}
- -t 13.79672 -s 1 -d 2 -p tcp -e 1040 -c 0 -i 18 -a 0 -x {0.0 4.0 11 ------- null}
h -t 13.79672 -s 1 -d 2 -p tcp -e 1040 -c 0 -i 18 -a 0 -x {0.0 4.0 -1 ------- null}
r -t 13.96472 -s 2 -d 3 -p tcp -e 1040 -c 0 -i 13 -a 0 -x {0.0 4.0 8 ------- null}
+ -t 13.96472 -s 3 -d 4 -p tcp -e 1040 -c 0 -i 13 -a 0 -x {0.0 4.0 8 ------- null}
- -t 13.96472 -s 3 -d 4 -p tcp -e 1040 -c 0 -i 13 -a 0 -x {0.0 4.0 8 ------- null}
h -t 13.96472 -s 3 -d 4 -p tcp -e 1040 -c 0 -i 13 -a 0 -x {0.0 4.0 -1 ------- null}
r -t 14.0174933333333 -s 3 -d 4 -p tcp -e 1040 -c 0 -i 13 -a 0 -x {0.0 4.0 8 ------- null}
+ -t 14.0174933333333 -s 4 -d 3 -p ack -e 40 -c 0 -i 23 -a 0 -x {4.0 0.0 8 ------- null}
- -t 14.0174933333333 -s 4 -d 3 -p ack -e 40 -c 0 -i 23 -a 0 -x {4.0 0.0 8 ------- null}
h -t 14.0174933333333 -s 4 -d 3 -p ack -e 40 -c 0 -i 23 -a 0 -x {4.0 0.0 -1 ------- null}
r -t 14.0676 -s 4 -d 3 -p ack -e 40 -c 0 -i 23 -a 0 -x {4.0 0.0 8 ------- null}
+ -t 14.0676 -s 3 -d 2 -p ack -e 40 -c 0 -i 23 -a 0 -x {4.0 0.0 8 ------- null}
- -t 14.0676 -s 3 -d 2 -p ack -e 40 -c 0 -i 23 -a 0 -x {4.0 0.0 8 ------- null}
h -t 14.0676 -s 3 -d 2 -p ack -e 40 -c 0 -i 23 -a 0 -x {4.0 0.0 -1 ------- null}
r -t 14.29672 -s 1 -d 2 -p tcp -e 1040 -c 0 -i 16 -a 0 -x {0.0 4.0 10 ------- null}
+ -t 14.29672 -s 2 -d 3 -p tcp -e 1040 -c 0 -i 16 -a 0 -x {0.0 4.0 10 ------- null}
- -t 14.29672 -s 2 -d 3 -p tcp -e 1040 -c 0 -i 16 -a 0 -x {0.0 4.0 10 ------- null}
h -t 14.29672 -s 2 -d 3 -p tcp -e 1040 -c 0 -i 16 -a 0 -x {0.0 4.0 -1 ------- null}
r -t 14.2996 -s 2 -d 1 -p ack -e 40 -c 0 -i 22 -a 0 -x {4.0 0.0 7 ------- null}
+ -t 14.2996 -s 1 -d 0 -p ack -e 40 -c 0 -i 22 -a 0 -x {4.0 0.0 7 ------- null}
- -t 14.2996 -s 1 -d 0 -p ack -e 40 -c 0 -i 22 -a 0 -x {4.0 0.0 7 ------- null}
h -t 14.2996 -s 1 -d 0 -p ack -e 40 -c 0 -i 22 -a 0 -x {4.0 0.0 -1 ------- null}
r -t 14.3097066666667 -s 1 -d 0 -p ack -e 40 -c 0 -i 22 -a 0 -x {4.0 0.0 7 ------- null}
+ -t 14.3097066666667 -s 0 -d 1 -p tcp -e 1040 -c 0 -i 24 -a 0 -x {0.0 4.0 15 ------- null}
- -t 14.3097066666667 -s 0 -d 1 -p tcp -e 1040 -c 0 -i 24 -a 0 -x {0.0 4.0 15 ------- null}
h -t 14.3097066666667 -s 0 -d 1 -p tcp -e 1040 -c 0 -i 24 -a 0 -x {0.0 4.0 -1 ------- null}
+ -t 14.3097066666667 -s 0 -d 1 -p tcp -e 1040 -c 0 -i 25 -a 0 -x {0.0 4.0 16 ------- null}
- -t 14.31248 -s 0 -d 1 -p tcp -e 1040 -c 0 -i 25 -a 0 -x {0.0 4.0 16 ------- null}
h -t 14.31248 -s 0 -d 1 -p tcp -e 1040 -c 0 -i 25 -a 0 -x {0.0 4.0 -1 ------- null}
r -t 14.32248 -s 0 -d 1 -p tcp -e 1040 -c 0 -i 24 -a 0 -x {0.0 4.0 15 ------- null}
+ -t 14.32248 -s 1 -d 2 -p tcp -e 1040 -c 0 -i 24 -a 0 -x {0.0 4.0 15 ------- null}
r -t 14.3252533333333 -s 0 -d 1 -p tcp -e 1040 -c 0 -i 25 -a 0 -x {0.0 4.0 16 ------- null}
+ -t 14.3252533333333 -s 1 -d 2 -p tcp -e 1040 -c 0 -i 25 -a 0 -x {0.0 4.0 16 ------- null}
r -t 14.5996 -s 3 -d 2 -p ack -e 40 -c 0 -i 23 -a 0 -x {4.0 0.0 8 ------- null}
+ -t 14.5996 -s 2 -d 1 -p ack -e 40 -c 0 -i 23 -a 0 -x {4.0 0.0 8 ------- null}
- -t 14.5996 -s 2 -d 1 -p ack -e 40 -c 0 -i 23 -a 0 -x {4.0 0.0 8 ------- null}
h -t 14.5996 -s 2 -d 1 -p ack -e 40 -c 0 -i 23 -a 0 -x {4.0 0.0 -1 ------- null}
- -t 14.62872 -s 1 -d 2 -p tcp -e 1040 -c 0 -i 19 -a 0 -x {0.0 4.0 12 ------- null}
h -t 14.62872 -s 1 -d 2 -p tcp -e 1040 -c 0 -i 19 -a 0 -x {0.0 4.0 -1 ------- null}
r -t 14.79672 -s 2 -d 3 -p tcp -e 1040 -c 0 -i 15 -a 0 -x {0.0 4.0 9 ------- null}
+ -t 14.79672 -s 3 -d 4 -p tcp -e 1040 -c 0 -i 15 -a 0 -x {0.0 4.0 9 ------- null}
- -t 14.79672 -s 3 -d 4 -p tcp -e 1040 -c 0 -i 15 -a 0 -x {0.0 4.0 9 ------- null}
h -t 14.79672 -s 3 -d 4 -p tcp -e 1040 -c 0 -i 15 -a 0 -x {0.0 4.0 -1 ------- null}
r -t 14.8494933333333 -s 3 -d 4 -p tcp -e 1040 -c 0 -i 15 -a 0 -x {0.0 4.0 9 ------- null}
+ -t 14.8494933333333 -s 4 -d 3 -p ack -e 40 -c 0 -i 26 -a 0 -x {4.0 0.0 9 ------- null}
- -t 14.8494933333333 -s 4 -d 3 -p ack -e 40 -c 0 -i 26 -a 0 -x {4.0 0.0 9 ------- null}
h -t 14.8494933333333 -s 4 -d 3 -p ack -e 40 -c 0 -i 26 -a 0 -x {4.0 0.0 -1 ------- null}
r -t 14.8996 -s 4 -d 3 -p ack -e 40 -c 0 -i 26 -a 0 -x {4.0 0.0 9 ------- null}
+ -t 14.8996 -s 3 -d 2 -p ack -e 40 -c 0 -i 26 -a 0 -x {4.0 0.0 9 ------- null}
- -t 14.8996 -s 3 -d 2 -p ack -e 40 -c 0 -i 26 -a 0 -x {4.0 0.0 9 ------- null}