+ 0.5 0 1 tcp 40 ------- 0 0.0 4.0 0 0
- 0.5 0 1 tcp 40 ------- 0 0.0 4.0 0 0
r 0.510107 0 1 tcp 40 ------- 0 0.0 4.0 0 0
+ 0.510107 1 2 tcp 40 ------- 0 0.0 4.0 0 0
- 0.510107 1 2 tcp 40 ------- 0 0.0 4.0 0 0
r 1.042107 1 2 tcp 40 ------- 0 0.0 4.0 0 0
+ 1.042107 2 3 tcp 40 ------- 0 0.0 4.0 0 0
- 1.042107 2 3 tcp 40 ------- 0 0.0 4.0 0 0
r 1.574107 2 3 tcp 40 ------- 0 0.0 4.0 0 0
+ 1.574107 3 4 tcp 40 ------- 0 0.0 4.0 0 0
- 1.574107 3 4 tcp 40 ------- 0 0.0 4.0 0 0
r 1.624213 3 4 tcp 40 ------- 0 0.0 4.0 0 0
+ 1.624213 4 3 ack 40 ------- 0 4.0 0.0 0 1
- 1.624213 4 3 ack 40 ------- 0 4.0 0.0 0 1
r 1.67432 4 3 ack 40 ------- 0 4.0 0.0 0 1
+ 1.67432 3 2 ack 40 ------- 0 4.0 0.0 0 1
- 1.67432 3 2 ack 40 ------- 0 4.0 0.0 0 1
r 2.20632 3 2 ack 40 ------- 0 4.0 0.0 0 1
+ 2.20632 2 1 ack 40 ------- 0 4.0 0.0 0 1
- 2.20632 2 1 ack 40 ------- 0 4.0 0.0 0 1
r 2.73832 2 1 ack 40 ------- 0 4.0 0.0 0 1
+ 2.73832 1 0 ack 40 ------- 0 4.0 0.0 0 1
- 2.73832 1 0 ack 40 ------- 0 4.0 0.0 0 1
r 2.748427 1 0 ack 40 ------- 0 4.0 0.0 0 1
+ 2.748427 0 1 tcp 1040 ------- 0 0.0 4.0 1 2
- 2.748427 0 1 tcp 1040 ------- 0 0.0 4.0 1 2
+ 2.748427 0 1 tcp 1040 ------- 0 0.0 4.0 2 3
- 2.7512 0 1 tcp 1040 ------- 0 0.0 4.0 2 3
r 2.7612 0 1 tcp 1040 ------- 0 0.0 4.0 1 2
+ 2.7612 1 2 tcp 1040 ------- 0 0.0 4.0 1 2
- 2.7612 1 2 tcp 1040 ------- 0 0.0 4.0 1 2
r 2.763973 0 1 tcp 1040 ------- 0 0.0 4.0 2 3
+ 2.763973 1 2 tcp 1040 ------- 0 0.0 4.0 2 3
- 3.5932 1 2 tcp 1040 ------- 0 0.0 4.0 2 3
r 4.0932 1 2 tcp 1040 ------- 0 0.0 4.0 1 2
+ 4.0932 2 3 tcp 1040 ------- 0 0.0 4.0 1 2
- 4.0932 2 3 tcp 1040 ------- 0 0.0 4.0 1 2
r 4.9252 1 2 tcp 1040 ------- 0 0.0 4.0 2 3
+ 4.9252 2 3 tcp 1040 ------- 0 0.0 4.0 2 3
- 4.9252 2 3 tcp 1040 ------- 0 0.0 4.0 2 3
r 5.4252 2 3 tcp 1040 ------- 0 0.0 4.0 1 2
+ 5.4252 3 4 tcp 1040 ------- 0 0.0 4.0 1 2
- 5.4252 3 4 tcp 1040 ------- 0 0.0 4.0 1 2
r 5.477973 3 4 tcp 1040 ------- 0 0.0 4.0 1 2
+ 5.477973 4 3 ack 40 ------- 0 4.0 0.0 1 4
- 5.477973 4 3 ack 40 ------- 0 4.0 0.0 1 4
r 5.52808 4 3 ack 40 ------- 0 4.0 0.0 1 4
+ 5.52808 3 2 ack 40 ------- 0 4.0 0.0 1 4
- 5.52808 3 2 ack 40 ------- 0 4.0 0.0 1 4
r 6.06008 3 2 ack 40 ------- 0 4.0 0.0 1 4
+ 6.06008 2 1 ack 40 ------- 0 4.0 0.0 1 4
- 6.06008 2 1 ack 40 ------- 0 4.0 0.0 1 4
r 6.2572 2 3 tcp 1040 ------- 0 0.0 4.0 2 3
+ 6.2572 3 4 tcp 1040 ------- 0 0.0 4.0 2 3
- 6.2572 3 4 tcp 1040 ------- 0 0.0 4.0 2 3
r 6.309973 3 4 tcp 1040 ------- 0 0.0 4.0 2 3
+ 6.309973 4 3 ack 40 ------- 0 4.0 0.0 2 5
- 6.309973 4 3 ack 40 ------- 0 4.0 0.0 2 5
r 6.36008 4 3 ack 40 ------- 0 4.0 0.0 2 5
+ 6.36008 3 2 ack 40 ------- 0 4.0 0.0 2 5
- 6.36008 3 2 ack 40 ------- 0 4.0 0.0 2 5
r 6.59208 2 1 ack 40 ------- 0 4.0 0.0 1 4
+ 6.59208 1 0 ack 40 ------- 0 4.0 0.0 1 4
- 6.59208 1 0 ack 40 ------- 0 4.0 0.0 1 4
r 6.602187 1 0 ack 40 ------- 0 4.0 0.0 1 4
+ 6.602187 0 1 tcp 1040 ------- 0 0.0 4.0 3 6
- 6.602187 0 1 tcp 1040 ------- 0 0.0 4.0 3 6
+ 6.602187 0 1 tcp 1040 ------- 0 0.0 4.0 4 7
- 6.60496 0 1 tcp 1040 ------- 0 0.0 4.0 4 7
r 6.61496 0 1 tcp 1040 ------- 0 0.0 4.0 3 6
+ 6.61496 1 2 tcp 1040 ------- 0 0.0 4.0 3 6
- 6.61496 1 2 tcp 1040 ------- 0 0.0 4.0 3 6
r 6.617733 0 1 tcp 1040 ------- 0 0.0 4.0 4 7
+ 6.617733 1 2 tcp 1040 ------- 0 0.0 4.0 4 7
r 6.89208 3 2 ack 40 ------- 0 4.0 0.0 2 5
+ 6.89208 2 1 ack 40 ------- 0 4.0 0.0 2 5
- 6.89208 2 1 ack 40 ------- 0 4.0 0.0 2 5
r 7.42408 2 1 ack 40 ------- 0 4.0 0.0 2 5
+ 7.42408 1 0 ack 40 ------- 0 4.0 0.0 2 5
- 7.42408 1 0 ack 40 ------- 0 4.0 0.0 2 5
r 7.434187 1 0 ack 40 ------- 0 4.0 0.0 2 5
+ 7.434187 0 1 tcp 1040 ------- 0 0.0 4.0 5 8
- 7.434187 0 1 tcp 1040 ------- 0 0.0 4.0 5 8
+ 7.434187 0 1 tcp 1040 ------- 0 0.0 4.0 6 9
- 7.43696 0 1 tcp 1040 ------- 0 0.0 4.0 6 9
- 7.44696 1 2 tcp 1040 ------- 0 0.0 4.0 4 7
r 7.44696 0 1 tcp 1040 ------- 0 0.0 4.0 5 8
+ 7.44696 1 2 tcp 1040 ------- 0 0.0 4.0 5 8
r 7.449733 0 1 tcp 1040 ------- 0 0.0 4.0 6 9
+ 7.449733 1 2 tcp 1040 ------- 0 0.0 4.0 6 9
r 7.94696 1 2 tcp 1040 ------- 0 0.0 4.0 3 6
+ 7.94696 2 3 tcp 1040 ------- 0 0.0 4.0 3 6
- 7.94696 2 3 tcp 1040 ------- 0 0.0 4.0 3 6
- 8.27896 1 2 tcp 1040 ------- 0 0.0 4.0 5 8
r 8.77896 1 2 tcp 1040 ------- 0 0.0 4.0 4 7
+ 8.77896 2 3 tcp 1040 ------- 0 0.0 4.0 4 7
- 8.77896 2 3 tcp 1040 ------- 0 0.0 4.0 4 7
- 9.11096 1 2 tcp 1040 ------- 0 0.0 4.0 6 9
r 9.27896 2 3 tcp 1040 ------- 0 0.0 4.0 3 6
+ 9.27896 3 4 tcp 1040 ------- 0 0.0 4.0 3 6
- 9.27896 3 4 tcp 1040 ------- 0 0.0 4.0 3 6
r 9.331733 3 4 tcp 1040 ------- 0 0.0 4.0 3 6
+ 9.331733 4 3 ack 40 ------- 0 4.0 0.0 3 10
- 9.331733 4 3 ack 40 ------- 0 4.0 0.0 3 10
r 9.38184 4 3 ack 40 ------- 0 4.0 0.0 3 10
+ 9.38184 3 2 ack 40 ------- 0 4.0 0.0 3 10
- 9.38184 3 2 ack 40 ------- 0 4.0 0.0 3 10
r 9.61096 1 2 tcp 1040 ------- 0 0.0 4.0 5 8
+ 9.61096 2 3 tcp 1040 ------- 0 0.0 4.0 5 8
- 9.61096 2 3 tcp 1040 ------- 0 0.0 4.0 5 8
r 9.91384 3 2 ack 40 ------- 0 4.0 0.0 3 10
+ 9.91384 2 1 ack 40 ------- 0 4.0 0.0 3 10
- 9.91384 2 1 ack 40 ------- 0 4.0 0.0 3 10
r 10.11096 2 3 tcp 1040 ------- 0 0.0 4.0 4 7
+ 10.11096 3 4 tcp 1040 ------- 0 0.0 4.0 4 7
- 10.11096 3 4 tcp 1040 ------- 0 0.0 4.0 4 7
r 10.163733 3 4 tcp 1040 ------- 0 0.0 4.0 4 7
+ 10.163733 4 3 ack 40 ------- 0 4.0 0.0 4 11
- 10.163733 4 3 ack 40 ------- 0 4.0 0.0 4 11
r 10.21384 4 3 ack 40 ------- 0 4.0 0.0 4 11
+ 10.21384 3 2 ack 40 ------- 0 4.0 0.0 4 11
- 10.21384 3 2 ack 40 ------- 0 4.0 0.0 4 11
r 10.44296 1 2 tcp 1040 ------- 0 0.0 4.0 6 9
+ 10.44296 2 3 tcp 1040 ------- 0 0.0 4.0 6 9
- 10.44296 2 3 tcp 1040 ------- 0 0.0 4.0 6 9
r 10.44584 2 1 ack 40 ------- 0 4.0 0.0 3 10
+ 10.44584 1 0 ack 40 ------- 0 4.0 0.0 3 10
- 10.44584 1 0 ack 40 ------- 0 4.0 0.0 3 10
r 10.455947 1 0 ack 40 ------- 0 4.0 0.0 3 10
+ 10.455947 0 1 tcp 1040 ------- 0 0.0 4.0 7 12
- 10.455947 0 1 tcp 1040 ------- 0 0.0 4.0 7 12
+ 10.455947 0 1 tcp 1040 ------- 0 0.0 4.0 8 13
- 10.45872 0 1 tcp 1040 ------- 0 0.0 4.0 8 13
r 10.46872 0 1 tcp 1040 ------- 0 0.0 4.0 7 12
+ 10.46872 1 2 tcp 1040 ------- 0 0.0 4.0 7 12
- 10.46872 1 2 tcp 1040 ------- 0 0.0 4.0 7 12
r 10.471493 0 1 tcp 1040 ------- 0 0.0 4.0 8 13
+ 10.471493 1 2 tcp 1040 ------- 0 0.0 4.0 8 13
r 10.74584 3 2 ack 40 ------- 0 4.0 0.0 4 11
+ 10.74584 2 1 ack 40 ------- 0 4.0 0.0 4 11
- 10.74584 2 1 ack 40 ------- 0 4.0 0.0 4 11
r 10.94296 2 3 tcp 1040 ------- 0 0.0 4.0 5 8
+ 10.94296 3 4 tcp 1040 ------- 0 0.0 4.0 5 8
- 10.94296 3 4 tcp 1040 ------- 0 0.0 4.0 5 8
r 10.995733 3 4 tcp 1040 ------- 0 0.0 4.0 5 8
+ 10.995733 4 3 ack 40 ------- 0 4.0 0.0 5 14
- 10.995733 4 3 ack 40 ------- 0 4.0 0.0 5 14
r 11.04584 4 3 ack 40 ------- 0 4.0 0.0 5 14
+ 11.04584 3 2 ack 40 ------- 0 4.0 0.0 5 14
- 11.04584 3 2 ack 40 ------- 0 4.0 0.0 5 14
r 11.27784 2 1 ack 40 ------- 0 4.0 0.0 4 11
+ 11.27784 1 0 ack 40 ------- 0 4.0 0.0 4 11
- 11.27784 1 0 ack 40 ------- 0 4.0 0.0 4 11
r 11.287947 1 0 ack 40 ------- 0 4.0 0.0 4 11
+ 11.287947 0 1 tcp 1040 ------- 0 0.0 4.0 9 15
- 11.287947 0 1 tcp 1040 ------- 0 0.0 4.0 9 15
+ 11.287947 0 1 tcp 1040 ------- 0 0.0 4.0 10 16
- 11.29072 0 1 tcp 1040 ------- 0 0.0 4.0 10 16
r 11.30072 0 1 tcp 1040 ------- 0 0.0 4.0 9 15
+ 11.30072 1 2 tcp 1040 ------- 0 0.0 4.0 9 15
- 11.30072 1 2 tcp 1040 ------- 0 0.0 4.0 8 13
r 11.303493 0 1 tcp 1040 ------- 0 0.0 4.0 10 16
+ 11.303493 1 2 tcp 1040 ------- 0 0.0 4.0 10 16
r 11.57784 3 2 ack 40 ------- 0 4.0 0.0 5 14
+ 11.57784 2 1 ack 40 ------- 0 4.0 0.0 5 14
- 11.57784 2 1 ack 40 ------- 0 4.0 0.0 5 14
r 11.77496 2 3 tcp 1040 ------- 0 0.0 4.0 6 9
+ 11.77496 3 4 tcp 1040 ------- 0 0.0 4.0 6 9
- 11.77496 3 4 tcp 1040 ------- 0 0.0 4.0 6 9
r 11.80072 1 2 tcp 1040 ------- 0 0.0 4.0 7 12
+ 11.80072 2 3 tcp 1040 ------- 0 0.0 4.0 7 12
- 11.80072 2 3 tcp 1040 ------- 0 0.0 4.0 7 12
r 11.827733 3 4 tcp 1040 ------- 0 0.0 4.0 6 9
+ 11.827733 4 3 ack 40 ------- 0 4.0 0.0 6 17
- 11.827733 4 3 ack 40 ------- 0 4.0 0.0 6 17
r 11.87784 4 3 ack 40 ------- 0 4.0 0.0 6 17
+ 11.87784 3 2 ack 40 ------- 0 4.0 0.0 6 17
- 11.87784 3 2 ack 40 ------- 0 4.0 0.0 6 17
r 12.10984 2 1 ack 40 ------- 0 4.0 0.0 5 14
+ 12.10984 1 0 ack 40 ------- 0 4.0 0.0 5 14
- 12.10984 1 0 ack 40 ------- 0 4.0 0.0 5 14
r 12.119947 1 0 ack 40 ------- 0 4.0 0.0 5 14
+ 12.119947 0 1 tcp 1040 ------- 0 0.0 4.0 11 18
- 12.119947 0 1 tcp 1040 ------- 0 0.0 4.0 11 18
+ 12.119947 0 1 tcp 1040 ------- 0 0.0 4.0 12 19
- 12.12272 0 1 tcp 1040 ------- 0 0.0 4.0 12 19
r 12.13272 0 1 tcp 1040 ------- 0 0.0 4.0 11 18
+ 12.13272 1 2 tcp 1040 ------- 0 0.0 4.0 11 18
- 12.13272 1 2 tcp 1040 ------- 0 0.0 4.0 9 15
r 12.135493 0 1 tcp 1040 ------- 0 0.0 4.0 12 19
+ 12.135493 1 2 tcp 1040 ------- 0 0.0 4.0 12 19
r 12.40984 3 2 ack 40 ------- 0 4.0 0.0 6 17
+ 12.40984 2 1 ack 40 ------- 0 4.0 0.0 6 17
- 12.40984 2 1 ack 40 ------- 0 4.0 0.0 6 17
r 12.63272 1 2 tcp 1040 ------- 0 0.0 4.0 8 13
+ 12.63272 2 3 tcp 1040 ------- 0 0.0 4.0 8 13
- 12.63272 2 3 tcp 1040 ------- 0 0.0 4.0 8 13
r 12.94184 2 1 ack 40 ------- 0 4.0 0.0 6 17
+ 12.94184 1 0 ack 40 ------- 0 4.0 0.0 6 17
- 12.94184 1 0 ack 40 ------- 0 4.0 0.0 6 17
r 12.951947 1 0 ack 40 ------- 0 4.0 0.0 6 17
+ 12.951947 0 1 tcp 1040 ------- 0 0.0 4.0 13 20
- 12.951947 0 1 tcp 1040 ------- 0 0.0 4.0 13 20
+ 12.951947 0 1 tcp 1040 ------- 0 0.0 4.0 14 21
- 12.95472 0 1 tcp 1040 ------- 0 0.0 4.0 14 21
r 12.96472 0 1 tcp 1040 ------- 0 0.0 4.0 13 20
+ 12.96472 1 2 tcp 1040 ------- 0 0.0 4.0 13 20
- 12.96472 1 2 tcp 1040 ------- 0 0.0 4.0 10 16
r 12.967493 0 1 tcp 1040 ------- 0 0.0 4.0 14 21
+ 12.967493 1 2 tcp 1040 ------- 0 0.0 4.0 14 21
r 13.13272 2 3 tcp 1040 ------- 0 0.0 4.0 7 12
+ 13.13272 3 4 tcp 1040 ------- 0 0.0 4.0 7 12
- 13.13272 3 4 tcp 1040 ------- 0 0.0 4.0 7 12
r 13.185493 3 4 tcp 1040 ------- 0 0.0 4.0 7 12
+ 13.185493 4 3 ack 40 ------- 0 4.0 0.0 7 22
- 13.185493 4 3 ack 40 ------- 0 4.0 0.0 7 22
r 13.2356 4 3 ack 40 ------- 0 4.0 0.0 7 22
+ 13.2356 3 2 ack 40 ------- 0 4.0 0.0 7 22
- 13.2356 3 2 ack 40 ------- 0 4.0 0.0 7 22
r 13.46472 1 2 tcp 1040 ------- 0 0.0 4.0 9 15
+ 13.46472 2 3 tcp 1040 ------- 0 0.0 4.0 9 15
- 13.46472 2 3 tcp 1040 ------- 0 0.0 4.0 9 15
r 13.7676 3 2 ack 40 ------- 0 4.0 0.0 7 22
+ 13.7676 2 1 ack 40 ------- 0 4.0 0.0 7 22
- 13.7676 2 1 ack 40 ------- 0 4.0 0.0 7 22
- 13.79672 1 2 tcp 1040 ------- 0 0.0 4.0 11 18
r 13.96472 2 3 tcp 1040 ------- 0 0.0 4.0 8 13
+ 13.96472 3 4 tcp 1040 ------- 0 0.0 4.0 8 13
- 13.96472 3 4 tcp 1040 ------- 0 0.0 4.0 8 13
r 14.017493 3 4 tcp 1040 ------- 0 0.0 4.0 8 13
+ 14.017493 4 3 ack 40 ------- 0 4.0 0.0 8 23
- 14.017493 4 3 ack 40 ------- 0 4.0 0.0 8 23
r 14.0676 4 3 ack 40 ------- 0 4.0 0.0 8 23
+ 14.0676 3 2 ack 40 ------- 0 4.0 0.0 8 23
- 14.0676 3 2 ack 40 ------- 0 4.0 0.0 8 23
r 14.29672 1 2 tcp 1040 ------- 0 0.0 4.0 10 16
+ 14.29672 2 3 tcp 1040 ------- 0 0.0 4.0 10 16
- 14.29672 2 3 tcp 1040 ------- 0 0.0 4.0 10 16
r 14.2996 2 1 ack 40 ------- 0 4.0 0.0 7 22
+ 14.2996 1 0 ack 40 ------- 0 4.0 0.0 7 22
- 14.2996 1 0 ack 40 ------- 0 4.0 0.0 7 22
r 14.309707 1 0 ack 40 ------- 0 4.0 0.0 7 22
+ 14.309707 0 1 tcp 1040 ------- 0 0.0 4.0 15 24
- 14.309707 0 1 tcp 1040 ------- 0 0.0 4.0 15 24
+ 14.309707 0 1 tcp 1040 ------- 0 0.0 4.0 16 25
- 14.31248 0 1 tcp 1040 ------- 0 0.0 4.0 16 25
r 14.32248 0 1 tcp 1040 ------- 0 0.0 4.0 15 24
+ 14.32248 1 2 tcp 1040 ------- 0 0.0 4.0 15 24
r 14.325253 0 1 tcp 1040 ------- 0 0.0 4.0 16 25
+ 14.325253 1 2 tcp 1040 ------- 0 0.0 4.0 16 25
r 14.5996 3 2 ack 40 ------- 0 4.0 0.0 8 23
+ 14.5996 2 1 ack 40 ------- 0 4.0 0.0 8 23
- 14.5996 2 1 ack 40 ------- 0 4.0 0.0 8 23
- 14.62872 1 2 tcp 1040 ------- 0 0.0 4.0 12 19
r 14.79672 2 3 tcp 1040 ------- 0 0.0 4.0 9 15
+ 14.79672 3 4 tcp 1040 ------- 0 0.0 4.0 9 15
- 14.79672 3 4 tcp 1040 ------- 0 0.0 4.0 9 15
r 14.849493 3 4 tcp 1040 ------- 0 0.0 4.0 9 15
+ 14.849493 4 3 ack 40 ------- 0 4.0 0.0 9 26
- 14.849493 4 3 ack 40 ------- 0 4.0 0.0 9 26
r 14.8996 4 3 ack 40 ------- 0 4.0 0.0 9 26
+ 14.8996 3 2 ack 40 ------- 0 4.0 0.0 9 26
- 14.8996 3 2 ack 40 ------- 0 4.0 0.0 9 26
r 15.12872 1 2 tcp 1040 ------- 0 0.0 4.0 11 18
+ 15.12872 2 3 tcp 1040 ------- 0 0.0 4.0 11 18
- 15.12872 2 3 tcp 1040 ------- 0 0.0 4.0 11 18
r 15.1316 2 1 ack 40 ------- 0 4.0 0.0 8 23
+ 15.1316 1 0 ack 40 ------- 0 4.0 0.0 8 23
- 15.1316 1 0 ack 40 ------- 0 4.0 0.0 8 23
r 15.141707 1 0 ack 40 ------- 0 4.0 0.0 8 23
+ 15.141707 0 1 tcp 1040 ------- 0 0.0 4.0 17 27
- 15.141707 0 1 tcp 1040 ------- 0 0.0 4.0 17 27
+ 15.141707 0 1 tcp 1040 ------- 0 0.0 4.0 18 28
- 15.14448 0 1 tcp 1040 ------- 0 0.0 4.0 18 28
r 15.15448 0 1 tcp 1040 ------- 0 0.0 4.0 17 27
+ 15.15448 1 2 tcp 1040 ------- 0 0.0 4.0 17 27
r 15.157253 0 1 tcp 1040 ------- 0 0.0 4.0 18 28
+ 15.157253 1 2 tcp 1040 ------- 0 0.0 4.0 18 28
d 15.157253 1 2 tcp 1040 ------- 0 0.0 4.0 18 28
r 15.4316 3 2 ack 40 ------- 0 4.0 0.0 9 26
+ 15.4316 2 1 ack 40 ------- 0 4.0 0.0 9 26
- 15.4316 2 1 ack 40 ------- 0 4.0 0.0 9 26
- 15.46072 1 2 tcp 1040 ------- 0 0.0 4.0 13 20
r 15.62872 2 3 tcp 1040 ------- 0 0.0 4.0 10 16
+ 15.62872 3 4 tcp 1040 ------- 0 0.0 4.0 10 16
- 15.62872 3 4 tcp 1040 ------- 0 0.0 4.0 10 16
r 15.681493 3 4 tcp 1040 ------- 0 0.0 4.0 10 16
+ 15.681493 4 3 ack 40 ------- 0 4.0 0.0 10 29
- 15.681493 4 3 ack 40 ------- 0 4.0 0.0 10 29
r 15.7316 4 3 ack 40 ------- 0 4.0 0.0 10 29
+ 15.7316 3 2 ack 40 ------- 0 4.0 0.0 10 29
- 15.7316 3 2 ack 40 ------- 0 4.0 0.0 10 29
r 15.96072 1 2 tcp 1040 ------- 0 0.0 4.0 12 19
+ 15.96072 2 3 tcp 1040 ------- 0 0.0 4.0 12 19
- 15.96072 2 3 tcp 1040 ------- 0 0.0 4.0 12 19
r 15.9636 2 1 ack 40 ------- 0 4.0 0.0 9 26
+ 15.9636 1 0 ack 40 ------- 0 4.0 0.0 9 26
- 15.9636 1 0 ack 40 ------- 0 4.0 0.0 9 26
r 15.973707 1 0 ack 40 ------- 0 4.0 0.0 9 26
+ 15.973707 0 1 tcp 1040 ------- 0 0.0 4.0 19 30
- 15.973707 0 1 tcp 1040 ------- 0 0.0 4.0 19 30
+ 15.973707 0 1 tcp 1040 ------- 0 0.0 4.0 20 31
- 15.97648 0 1 tcp 1040 ------- 0 0.0 4.0 20 31
r 15.98648 0 1 tcp 1040 ------- 0 0.0 4.0 19 30
+ 15.98648 1 2 tcp 1040 ------- 0 0.0 4.0 19 30
r 15.989253 0 1 tcp 1040 ------- 0 0.0 4.0 20 31
+ 15.989253 1 2 tcp 1040 ------- 0 0.0 4.0 20 31
d 15.989253 1 2 tcp 1040 ------- 0 0.0 4.0 20 31
r 16.2636 3 2 ack 40 ------- 0 4.0 0.0 10 29
+ 16.2636 2 1 ack 40 ------- 0 4.0 0.0 10 29
- 16.2636 2 1 ack 40 ------- 0 4.0 0.0 10 29
- 16.29272 1 2 tcp 1040 ------- 0 0.0 4.0 14 21
r 16.46072 2 3 tcp 1040 ------- 0 0.0 4.0 11 18
+ 16.46072 3 4 tcp 1040 ------- 0 0.0 4.0 11 18
- 16.46072 3 4 tcp 1040 ------- 0 0.0 4.0 11 18
r 16.513493 3 4 tcp 1040 ------- 0 0.0 4.0 11 18
+ 16.513493 4 3 ack 40 ------- 0 4.0 0.0 11 32
- 16.513493 4 3 ack 40 ------- 0 4.0 0.0 11 32
r 16.5636 4 3 ack 40 ------- 0 4.0 0.0 11 32
+ 16.5636 3 2 ack 40 ------- 0 4.0 0.0 11 32
- 16.5636 3 2 ack 40 ------- 0 4.0 0.0 11 32
r 16.79272 1 2 tcp 1040 ------- 0 0.0 4.0 13 20
+ 16.79272 2 3 tcp 1040 ------- 0 0.0 4.0 13 20
- 16.79272 2 3 tcp 1040 ------- 0 0.0 4.0 13 20
r 16.7956 2 1 ack 40 ------- 0 4.0 0.0 10 29
+ 16.7956 1 0 ack 40 ------- 0 4.0 0.0 10 29
- 16.7956 1 0 ack 40 ------- 0 4.0 0.0 10 29
r 16.805707 1 0 ack 40 ------- 0 4.0 0.0 10 29
+ 16.805707 0 1 tcp 1040 ------- 0 0.0 4.0 21 33
- 16.805707 0 1 tcp 1040 ------- 0 0.0 4.0 21 33
+ 16.805707 0 1 tcp 1040 ------- 0 0.0 4.0 22 34
- 16.80848 0 1 tcp 1040 ------- 0 0.0 4.0 22 34
r 16.81848 0 1 tcp 1040 ------- 0 0.0 4.0 21 33
+ 16.81848 1 2 tcp 1040 ------- 0 0.0 4.0 21 33
r 16.821253 0 1 tcp 1040 ------- 0 0.0 4.0 22 34
+ 16.821253 1 2 tcp 1040 ------- 0 0.0 4.0 22 34
d 16.821253 1 2 tcp 1040 ------- 0 0.0 4.0 22 34
r 17.0956 3 2 ack 40 ------- 0 4.0 0.0 11 32
+ 17.0956 2 1 ack 40 ------- 0 4.0 0.0 11 32
- 17.0956 2 1 ack 40 ------- 0 4.0 0.0 11 32
- 17.12472 1 2 tcp 1040 ------- 0 0.0 4.0 15 24
r 17.29272 2 3 tcp 1040 ------- 0 0.0 4.0 12 19
+ 17.29272 3 4 tcp 1040 ------- 0 0.0 4.0 12 19
- 17.29272 3 4 tcp 1040 ------- 0 0.0 4.0 12 19
r 17.345493 3 4 tcp 1040 ------- 0 0.0 4.0 12 19
+ 17.345493 4 3 ack 40 ------- 0 4.0 0.0 12 35
- 17.345493 4 3 ack 40 ------- 0 4.0 0.0 12 35
r 17.3956 4 3 ack 40 ------- 0 4.0 0.0 12 35
+ 17.3956 3 2 ack 40 ------- 0 4.0 0.0 12 35
- 17.3956 3 2 ack 40 ------- 0 4.0 0.0 12 35
r 17.62472 1 2 tcp 1040 ------- 0 0.0 4.0 14 21
+ 17.62472 2 3 tcp 1040 ------- 0 0.0 4.0 14 21
- 17.62472 2 3 tcp 1040 ------- 0 0.0 4.0 14 21
r 17.6276 2 1 ack 40 ------- 0 4.0 0.0 11 32
+ 17.6276 1 0 ack 40 ------- 0 4.0 0.0 11 32
- 17.6276 1 0 ack 40 ------- 0 4.0 0.0 11 32
r 17.637707 1 0 ack 40 ------- 0 4.0 0.0 11 32
+ 17.637707 0 1 tcp 1040 ------- 0 0.0 4.0 23 36
- 17.637707 0 1 tcp 1040 ------- 0 0.0 4.0 23 36
+ 17.637707 0 1 tcp 1040 ------- 0 0.0 4.0 24 37
- 17.64048 0 1 tcp 1040 ------- 0 0.0 4.0 24 37
r 17.65048 0 1 tcp 1040 ------- 0 0.0 4.0 23 36
+ 17.65048 1 2 tcp 1040 ------- 0 0.0 4.0 23 36
r 17.653253 0 1 tcp 1040 ------- 0 0.0 4.0 24 37
+ 17.653253 1 2 tcp 1040 ------- 0 0.0 4.0 24 37
d 17.653253 1 2 tcp 1040 ------- 0 0.0 4.0 24 37
r 17.9276 3 2 ack 40 ------- 0 4.0 0.0 12 35
+ 17.9276 2 1 ack 40 ------- 0 4.0 0.0 12 35
- 17.9276 2 1 ack 40 ------- 0 4.0 0.0 12 35
- 17.95672 1 2 tcp 1040 ------- 0 0.0 4.0 16 25
r 18.12472 2 3 tcp 1040 ------- 0 0.0 4.0 13 20
+ 18.12472 3 4 tcp 1040 ------- 0 0.0 4.0 13 20
- 18.12472 3 4 tcp 1040 ------- 0 0.0 4.0 13 20
r 18.177493 3 4 tcp 1040 ------- 0 0.0 4.0 13 20
+ 18.177493 4 3 ack 40 ------- 0 4.0 0.0 13 38
- 18.177493 4 3 ack 40 ------- 0 4.0 0.0 13 38
r 18.2276 4 3 ack 40 ------- 0 4.0 0.0 13 38
+ 18.2276 3 2 ack 40 ------- 0 4.0 0.0 13 38
- 18.2276 3 2 ack 40 ------- 0 4.0 0.0 13 38
r 18.45672 1 2 tcp 1040 ------- 0 0.0 4.0 15 24
+ 18.45672 2 3 tcp 1040 ------- 0 0.0 4.0 15 24
- 18.45672 2 3 tcp 1040 ------- 0 0.0 4.0 15 24
r 18.4596 2 1 ack 40 ------- 0 4.0 0.0 12 35
+ 18.4596 1 0 ack 40 ------- 0 4.0 0.0 12 35
- 18.4596 1 0 ack 40 ------- 0 4.0 0.0 12 35
r 18.469707 1 0 ack 40 ------- 0 4.0 0.0 12 35
+ 18.469707 0 1 tcp 1040 ------- 0 0.0 4.0 25 39
- 18.469707 0 1 tcp 1040 ------- 0 0.0 4.0 25 39
+ 18.469707 0 1 tcp 1040 ------- 0 0.0 4.0 26 40
- 18.47248 0 1 tcp 1040 ------- 0 0.0 4.0 26 40
r 18.48248 0 1 tcp 1040 ------- 0 0.0 4.0 25 39
+ 18.48248 1 2 tcp 1040 ------- 0 0.0 4.0 25 39
r 18.485253 0 1 tcp 1040 ------- 0 0.0 4.0 26 40
+ 18.485253 1 2 tcp 1040 ------- 0 0.0 4.0 26 40
d 18.485253 1 2 tcp 1040 ------- 0 0.0 4.0 26 40
r 18.7596 3 2 ack 40 ------- 0 4.0 0.0 13 38
+ 18.7596 2 1 ack 40 ------- 0 4.0 0.0 13 38
- 18.7596 2 1 ack 40 ------- 0 4.0 0.0 13 38
- 18.78872 1 2 tcp 1040 ------- 0 0.0 4.0 17 27
r 18.95672 2 3 tcp 1040 ------- 0 0.0 4.0 14 21
+ 18.95672 3 4 tcp 1040 ------- 0 0.0 4.0 14 21
- 18.95672 3 4 tcp 1040 ------- 0 0.0 4.0 14 21
r 19.009493 3 4 tcp 1040 ------- 0 0.0 4.0 14 21
+ 19.009493 4 3 ack 40 ------- 0 4.0 0.0 14 41
- 19.009493 4 3 ack 40 ------- 0 4.0 0.0 14 41
r 19.0596 4 3 ack 40 ------- 0 4.0 0.0 14 41
+ 19.0596 3 2 ack 40 ------- 0 4.0 0.0 14 41
- 19.0596 3 2 ack 40 ------- 0 4.0 0.0 14 41
r 19.28872 1 2 tcp 1040 ------- 0 0.0 4.0 16 25
+ 19.28872 2 3 tcp 1040 ------- 0 0.0 4.0 16 25
- 19.28872 2 3 tcp 1040 ------- 0 0.0 4.0 16 25
r 19.2916 2 1 ack 40 ------- 0 4.0 0.0 13 38
+ 19.2916 1 0 ack 40 ------- 0 4.0 0.0 13 38
- 19.2916 1 0 ack 40 ------- 0 4.0 0.0 13 38
r 19.301707 1 0 ack 40 ------- 0 4.0 0.0 13 38
+ 19.301707 0 1 tcp 1040 ------- 0 0.0 4.0 27 42
- 19.301707 0 1 tcp 1040 ------- 0 0.0 4.0 27 42
+ 19.301707 0 1 tcp 1040 ------- 0 0.0 4.0 28 43
- 19.30448 0 1 tcp 1040 ------- 0 0.0 4.0 28 43
r 19.31448 0 1 tcp 1040 ------- 0 0.0 4.0 27 42
+ 19.31448 1 2 tcp 1040 ------- 0 0.0 4.0 27 42
r 19.317253 0 1 tcp 1040 ------- 0 0.0 4.0 28 43
+ 19.317253 1 2 tcp 1040 ------- 0 0.0 4.0 28 43
d 19.317253 1 2 tcp 1040 ------- 0 0.0 4.0 28 43
r 19.5916 3 2 ack 40 ------- 0 4.0 0.0 14 41
+ 19.5916 2 1 ack 40 ------- 0 4.0 0.0 14 41
- 19.5916 2 1 ack 40 ------- 0 4.0 0.0 14 41
- 19.62072 1 2 tcp 1040 ------- 0 0.0 4.0 19 30
r 19.78872 2 3 tcp 1040 ------- 0 0.0 4.0 15 24
+ 19.78872 3 4 tcp 1040 ------- 0 0.0 4.0 15 24
- 19.78872 3 4 tcp 1040 ------- 0 0.0 4.0 15 24
r 19.841493 3 4 tcp 1040 ------- 0 0.0 4.0 15 24
+ 19.841493 4 3 ack 40 ------- 0 4.0 0.0 15 44
- 19.841493 4 3 ack 40 ------- 0 4.0 0.0 15 44
r 19.8916 4 3 ack 40 ------- 0 4.0 0.0 15 44
+ 19.8916 3 2 ack 40 ------- 0 4.0 0.0 15 44
- 19.8916 3 2 ack 40 ------- 0 4.0 0.0 15 44
r 20.12072 1 2 tcp 1040 ------- 0 0.0 4.0 17 27
+ 20.12072 2 3 tcp 1040 ------- 0 0.0 4.0 17 27
- 20.12072 2 3 tcp 1040 ------- 0 0.0 4.0 17 27
r 20.1236 2 1 ack 40 ------- 0 4.0 0.0 14 41
+ 20.1236 1 0 ack 40 ------- 0 4.0 0.0 14 41
- 20.1236 1 0 ack 40 ------- 0 4.0 0.0 14 41
r 20.133707 1 0 ack 40 ------- 0 4.0 0.0 14 41
+ 20.133707 0 1 tcp 1040 ------- 0 0.0 4.0 29 45
- 20.133707 0 1 tcp 1040 ------- 0 0.0 4.0 29 45
+ 20.133707 0 1 tcp 1040 ------- 0 0.0 4.0 30 46
- 20.13648 0 1 tcp 1040 ------- 0 0.0 4.0 30 46
r 20.14648 0 1 tcp 1040 ------- 0 0.0 4.0 29 45
+ 20.14648 1 2 tcp 1040 ------- 0 0.0 4.0 29 45
r 20.149253 0 1 tcp 1040 ------- 0 0.0 4.0 30 46
+ 20.149253 1 2 tcp 1040 ------- 0 0.0 4.0 30 46
d 20.149253 1 2 tcp 1040 ------- 0 0.0 4.0 30 46
r 20.4236 3 2 ack 40 ------- 0 4.0 0.0 15 44
+ 20.4236 2 1 ack 40 ------- 0 4.0 0.0 15 44
- 20.4236 2 1 ack 40 ------- 0 4.0 0.0 15 44
- 20.45272 1 2 tcp 1040 ------- 0 0.0 4.0 21 33
r 20.62072 2 3 tcp 1040 ------- 0 0.0 4.0 16 25
+ 20.62072 3 4 tcp 1040 ------- 0 0.0 4.0 16 25
- 20.62072 3 4 tcp 1040 ------- 0 0.0 4.0 16 25
r 20.673493 3 4 tcp 1040 ------- 0 0.0 4.0 16 25
+ 20.673493 4 3 ack 40 ------- 0 4.0 0.0 16 47
- 20.673493 4 3 ack 40 ------- 0 4.0 0.0 16 47
r 20.7236 4 3 ack 40 ------- 0 4.0 0.0 16 47
+ 20.7236 3 2 ack 40 ------- 0 4.0 0.0 16 47
- 20.7236 3 2 ack 40 ------- 0 4.0 0.0 16 47
r 20.95272 1 2 tcp 1040 ------- 0 0.0 4.0 19 30
+ 20.95272 2 3 tcp 1040 ------- 0 0.0 4.0 19 30
- 20.95272 2 3 tcp 1040 ------- 0 0.0 4.0 19 30
r 20.9556 2 1 ack 40 ------- 0 4.0 0.0 15 44
+ 20.9556 1 0 ack 40 ------- 0 4.0 0.0 15 44
- 20.9556 1 0 ack 40 ------- 0 4.0 0.0 15 44
r 20.965707 1 0 ack 40 ------- 0 4.0 0.0 15 44
+ 20.965707 0 1 tcp 1040 ------- 0 0.0 4.0 31 48
- 20.965707 0 1 tcp 1040 ------- 0 0.0 4.0 31 48
+ 20.965707 0 1 tcp 1040 ------- 0 0.0 4.0 32 49
- 20.96848 0 1 tcp 1040 ------- 0 0.0 4.0 32 49
r 20.97848 0 1 tcp 1040 ------- 0 0.0 4.0 31 48
+ 20.97848 1 2 tcp 1040 ------- 0 0.0 4.0 31 48
r 20.981253 0 1 tcp 1040 ------- 0 0.0 4.0 32 49
+ 20.981253 1 2 tcp 1040 ------- 0 0.0 4.0 32 49
d 20.981253 1 2 tcp 1040 ------- 0 0.0 4.0 32 49
r 21.2556 3 2 ack 40 ------- 0 4.0 0.0 16 47
+ 21.2556 2 1 ack 40 ------- 0 4.0 0.0 16 47
- 21.2556 2 1 ack 40 ------- 0 4.0 0.0 16 47
- 21.28472 1 2 tcp 1040 ------- 0 0.0 4.0 23 36
r 21.45272 2 3 tcp 1040 ------- 0 0.0 4.0 17 27
+ 21.45272 3 4 tcp 1040 ------- 0 0.0 4.0 17 27
- 21.45272 3 4 tcp 1040 ------- 0 0.0 4.0 17 27
r 21.505493 3 4 tcp 1040 ------- 0 0.0 4.0 17 27
+ 21.505493 4 3 ack 40 ------- 0 4.0 0.0 17 50
- 21.505493 4 3 ack 40 ------- 0 4.0 0.0 17 50
r 21.5556 4 3 ack 40 ------- 0 4.0 0.0 17 50
+ 21.5556 3 2 ack 40 ------- 0 4.0 0.0 17 50
- 21.5556 3 2 ack 40 ------- 0 4.0 0.0 17 50
r 21.78472 1 2 tcp 1040 ------- 0 0.0 4.0 21 33
+ 21.78472 2 3 tcp 1040 ------- 0 0.0 4.0 21 33
- 21.78472 2 3 tcp 1040 ------- 0 0.0 4.0 21 33
r 21.7876 2 1 ack 40 ------- 0 4.0 0.0 16 47
+ 21.7876 1 0 ack 40 ------- 0 4.0 0.0 16 47
- 21.7876 1 0 ack 40 ------- 0 4.0 0.0 16 47
r 21.797707 1 0 ack 40 ------- 0 4.0 0.0 16 47
+ 21.797707 0 1 tcp 1040 ------- 0 0.0 4.0 33 51
- 21.797707 0 1 tcp 1040 ------- 0 0.0 4.0 33 51
+ 21.797707 0 1 tcp 1040 ------- 0 0.0 4.0 34 52
- 21.80048 0 1 tcp 1040 ------- 0 0.0 4.0 34 52
r 21.81048 0 1 tcp 1040 ------- 0 0.0 4.0 33 51
+ 21.81048 1 2 tcp 1040 ------- 0 0.0 4.0 33 51
r 21.813253 0 1 tcp 1040 ------- 0 0.0 4.0 34 52
+ 21.813253 1 2 tcp 1040 ------- 0 0.0 4.0 34 52
d 21.813253 1 2 tcp 1040 ------- 0 0.0 4.0 34 52
r 22.0876 3 2 ack 40 ------- 0 4.0 0.0 17 50
+ 22.0876 2 1 ack 40 ------- 0 4.0 0.0 17 50
- 22.0876 2 1 ack 40 ------- 0 4.0 0.0 17 50
- 22.11672 1 2 tcp 1040 ------- 0 0.0 4.0 25 39
r 22.28472 2 3 tcp 1040 ------- 0 0.0 4.0 19 30
+ 22.28472 3 4 tcp 1040 ------- 0 0.0 4.0 19 30
- 22.28472 3 4 tcp 1040 ------- 0 0.0 4.0 19 30
r 22.337493 3 4 tcp 1040 ------- 0 0.0 4.0 19 30
+ 22.337493 4 3 ack 48 ------- 0 4.0 0.0 17 53
- 22.337493 4 3 ack 48 ------- 0 4.0 0.0 17 53
r 22.387621 4 3 ack 48 ------- 0 4.0 0.0 17 53
+ 22.387621 3 2 ack 48 ------- 0 4.0 0.0 17 53
- 22.387621 3 2 ack 48 ------- 0 4.0 0.0 17 53
r 22.61672 1 2 tcp 1040 ------- 0 0.0 4.0 23 36
+ 22.61672 2 3 tcp 1040 ------- 0 0.0 4.0 23 36
- 22.61672 2 3 tcp 1040 ------- 0 0.0 4.0 23 36
r 22.6196 2 1 ack 40 ------- 0 4.0 0.0 17 50
+ 22.6196 1 0 ack 40 ------- 0 4.0 0.0 17 50
- 22.6196 1 0 ack 40 ------- 0 4.0 0.0 17 50
r 22.629707 1 0 ack 40 ------- 0 4.0 0.0 17 50
+ 22.629707 0 1 tcp 1040 ------- 0 0.0 4.0 35 54
- 22.629707 0 1 tcp 1040 ------- 0 0.0 4.0 35 54
+ 22.629707 0 1 tcp 1040 ------- 0 0.0 4.0 36 55
- 22.63248 0 1 tcp 1040 ------- 0 0.0 4.0 36 55
r 22.64248 0 1 tcp 1040 ------- 0 0.0 4.0 35 54
+ 22.64248 1 2 tcp 1040 ------- 0 0.0 4.0 35 54
r 22.645253 0 1 tcp 1040 ------- 0 0.0 4.0 36 55
+ 22.645253 1 2 tcp 1040 ------- 0 0.0 4.0 36 55
d 22.645253 1 2 tcp 1040 ------- 0 0.0 4.0 36 55
r 22.926021 3 2 ack 48 ------- 0 4.0 0.0 17 53
+ 22.926021 2 1 ack 48 ------- 0 4.0 0.0 17 53
- 22.926021 2 1 ack 48 ------- 0 4.0 0.0 17 53
- 22.94872 1 2 tcp 1040 ------- 0 0.0 4.0 27 42
r 23.11672 2 3 tcp 1040 ------- 0 0.0 4.0 21 33
+ 23.11672 3 4 tcp 1040 ------- 0 0.0 4.0 21 33
- 23.11672 3 4 tcp 1040 ------- 0 0.0 4.0 21 33
r 23.169493 3 4 tcp 1040 ------- 0 0.0 4.0 21 33
+ 23.169493 4 3 ack 56 ------- 0 4.0 0.0 17 56
- 23.169493 4 3 ack 56 ------- 0 4.0 0.0 17 56
r 23.219643 4 3 ack 56 ------- 0 4.0 0.0 17 56
+ 23.219643 3 2 ack 56 ------- 0 4.0 0.0 17 56
- 23.219643 3 2 ack 56 ------- 0 4.0 0.0 17 56
r 23.44872 1 2 tcp 1040 ------- 0 0.0 4.0 25 39
+ 23.44872 2 3 tcp 1040 ------- 0 0.0 4.0 25 39
- 23.44872 2 3 tcp 1040 ------- 0 0.0 4.0 25 39
r 23.464421 2 1 ack 48 ------- 0 4.0 0.0 17 53
+ 23.464421 1 0 ack 48 ------- 0 4.0 0.0 17 53
- 23.464421 1 0 ack 48 ------- 0 4.0 0.0 17 53
r 23.474549 1 0 ack 48 ------- 0 4.0 0.0 17 53
+ 23.474549 0 1 tcp 1040 ------- 0 0.0 4.0 37 57
- 23.474549 0 1 tcp 1040 ------- 0 0.0 4.0 37 57
r 23.487323 0 1 tcp 1040 ------- 0 0.0 4.0 37 57
+ 23.487323 1 2 tcp 1040 ------- 0 0.0 4.0 37 57
r 23.764443 3 2 ack 56 ------- 0 4.0 0.0 17 56
+ 23.764443 2 1 ack 56 ------- 0 4.0 0.0 17 56
- 23.764443 2 1 ack 56 ------- 0 4.0 0.0 17 56
- 23.78072 1 2 tcp 1040 ------- 0 0.0 4.0 29 45
r 23.94872 2 3 tcp 1040 ------- 0 0.0 4.0 23 36
+ 23.94872 3 4 tcp 1040 ------- 0 0.0 4.0 23 36
- 23.94872 3 4 tcp 1040 ------- 0 0.0 4.0 23 36
r 24.001493 3 4 tcp 1040 ------- 0 0.0 4.0 23 36
+ 24.001493 4 3 ack 64 ------- 0 4.0 0.0 17 58
- 24.001493 4 3 ack 64 ------- 0 4.0 0.0 17 58
r 24.051664 4 3 ack 64 ------- 0 4.0 0.0 17 58
+ 24.051664 3 2 ack 64 ------- 0 4.0 0.0 17 58
- 24.051664 3 2 ack 64 ------- 0 4.0 0.0 17 58
r 24.28072 1 2 tcp 1040 ------- 0 0.0 4.0 27 42
+ 24.28072 2 3 tcp 1040 ------- 0 0.0 4.0 27 42
- 24.28072 2 3 tcp 1040 ------- 0 0.0 4.0 27 42
r 24.309243 2 1 ack 56 ------- 0 4.0 0.0 17 56
+ 24.309243 1 0 ack 56 ------- 0 4.0 0.0 17 56
- 24.309243 1 0 ack 56 ------- 0 4.0 0.0 17 56
r 24.319392 1 0 ack 56 ------- 0 4.0 0.0 17 56
r 24.602864 3 2 ack 64 ------- 0 4.0 0.0 17 58
+ 24.602864 2 1 ack 64 ------- 0 4.0 0.0 17 58
- 24.602864 2 1 ack 64 ------- 0 4.0 0.0 17 58
- 24.61272 1 2 tcp 1040 ------- 0 0.0 4.0 31 48
r 24.78072 2 3 tcp 1040 ------- 0 0.0 4.0 25 39
+ 24.78072 3 4 tcp 1040 ------- 0 0.0 4.0 25 39
- 24.78072 3 4 tcp 1040 ------- 0 0.0 4.0 25 39
r 24.833493 3 4 tcp 1040 ------- 0 0.0 4.0 25 39
+ 24.833493 4 3 ack 64 ------- 0 4.0 0.0 17 59
- 24.833493 4 3 ack 64 ------- 0 4.0 0.0 17 59
r 24.883664 4 3 ack 64 ------- 0 4.0 0.0 17 59
+ 24.883664 3 2 ack 64 ------- 0 4.0 0.0 17 59
- 24.883664 3 2 ack 64 ------- 0 4.0 0.0 17 59
r 25.11272 1 2 tcp 1040 ------- 0 0.0 4.0 29 45
+ 25.11272 2 3 tcp 1040 ------- 0 0.0 4.0 29 45
- 25.11272 2 3 tcp 1040 ------- 0 0.0 4.0 29 45
r 25.154064 2 1 ack 64 ------- 0 4.0 0.0 17 58
+ 25.154064 1 0 ack 64 ------- 0 4.0 0.0 17 58
- 25.154064 1 0 ack 64 ------- 0 4.0 0.0 17 58
r 25.164235 1 0 ack 64 ------- 0 4.0 0.0 17 58
+ 25.164235 0 1 tcp 1040 ---A--- 0 0.0 4.0 18 60
- 25.164235 0 1 tcp 1040 ---A--- 0 0.0 4.0 18 60
r 25.177008 0 1 tcp 1040 ---A--- 0 0.0 4.0 18 60
+ 25.177008 1 2 tcp 1040 ---A--- 0 0.0 4.0 18 60
r 25.434864 3 2 ack 64 ------- 0 4.0 0.0 17 59
+ 25.434864 2 1 ack 64 ------- 0 4.0 0.0 17 59
- 25.434864 2 1 ack 64 ------- 0 4.0 0.0 17 59
- 25.44472 1 2 tcp 1040 ------- 0 0.0 4.0 33 51
r 25.61272 2 3 tcp 1040 ------- 0 0.0 4.0 27 42
+ 25.61272 3 4 tcp 1040 ------- 0 0.0 4.0 27 42
- 25.61272 3 4 tcp 1040 ------- 0 0.0 4.0 27 42
r 25.665493 3 4 tcp 1040 ------- 0 0.0 4.0 27 42
+ 25.665493 4 3 ack 64 ------- 0 4.0 0.0 17 61
- 25.665493 4 3 ack 64 ------- 0 4.0 0.0 17 61
r 25.715664 4 3 ack 64 ------- 0 4.0 0.0 17 61
+ 25.715664 3 2 ack 64 ------- 0 4.0 0.0 17 61
- 25.715664 3 2 ack 64 ------- 0 4.0 0.0 17 61
r 25.94472 1 2 tcp 1040 ------- 0 0.0 4.0 31 48
+ 25.94472 2 3 tcp 1040 ------- 0 0.0 4.0 31 48
- 25.94472 2 3 tcp 1040 ------- 0 0.0 4.0 31 48
r 25.986064 2 1 ack 64 ------- 0 4.0 0.0 17 59
+ 25.986064 1 0 ack 64 ------- 0 4.0 0.0 17 59
- 25.986064 1 0 ack 64 ------- 0 4.0 0.0 17 59
r 25.996235 1 0 ack 64 ------- 0 4.0 0.0 17 59
r 26.266864 3 2 ack 64 ------- 0 4.0 0.0 17 61
+ 26.266864 2 1 ack 64 ------- 0 4.0 0.0 17 61
- 26.266864 2 1 ack 64 ------- 0 4.0 0.0 17 61
- 26.27672 1 2 tcp 1040 ------- 0 0.0 4.0 35 54
r 26.44472 2 3 tcp 1040 ------- 0 0.0 4.0 29 45
+ 26.44472 3 4 tcp 1040 ------- 0 0.0 4.0 29 45
- 26.44472 3 4 tcp 1040 ------- 0 0.0 4.0 29 45
r 26.497493 3 4 tcp 1040 ------- 0 0.0 4.0 29 45
+ 26.497493 4 3 ack 64 ------- 0 4.0 0.0 17 62
- 26.497493 4 3 ack 64 ------- 0 4.0 0.0 17 62
r 26.547664 4 3 ack 64 ------- 0 4.0 0.0 17 62
+ 26.547664 3 2 ack 64 ------- 0 4.0 0.0 17 62
- 26.547664 3 2 ack 64 ------- 0 4.0 0.0 17 62
r 26.77672 1 2 tcp 1040 ------- 0 0.0 4.0 33 51
+ 26.77672 2 3 tcp 1040 ------- 0 0.0 4.0 33 51
- 26.77672 2 3 tcp 1040 ------- 0 0.0 4.0 33 51