s 5.000000000 _1_ AGT  --- 0 tcp 40 [0 0 0 0] ------- [1:0 3:0 32 0] [0 0] 0 0
r 5.000000000 _1_ RTR  --- 0 tcp 40 [0 0 0 0] ------- [1:0 3:0 32 0] [0 0] 0 0
M 5.00000 0 (26.25, 210.57, 0.00), (584.30, 621.85), 20.00
M 5.00000 1 (469.73, 321.26, 0.00), (252.42, 352.04), 20.00
M 5.00000 2 (229.97, 314.90, 0.00), (44.41, 143.06), 20.00
M 5.00000 3 (602.47, 717.38, 0.00), (639.54, 444.95), 20.00
M 5.00000 4 (18.77, 429.10, 0.00), (47.97, 744.56), 20.00
M 5.00000 5 (617.97, 280.22, 0.00), (9.42, 47.79), 20.00
M 5.00000 6 (490.04, 273.52, 0.00), (675.92, 673.83), 20.00
M 5.00000 7 (305.76, 582.55, 0.00), (134.81, 25.02), 20.00
M 5.00000 8 (347.65, 370.23, 0.00), (484.10, 286.92), 20.00
M 5.00000 9 (512.29, 734.10, 0.00), (574.97, 506.70), 20.00
s 5.000000000 _1_ RTR  --- 0 AODV 48 [0 0 0 0] ------- [1:255 -1:255 30 0] [0x2 1 1 [3 0] [1 4]] (REQUEST)
r 5.000988173 _6_ RTR  --- 0 AODV 48 [0 ffffffff 1 800] ------- [1:255 -1:255 30 0] [0x2 1 1 [3 0] [1 4]] (REQUEST)
r 5.000988438 _8_ RTR  --- 0 AODV 48 [0 ffffffff 1 800] ------- [1:255 -1:255 30 0] [0x2 1 1 [3 0] [1 4]] (REQUEST)
r 5.000988513 _5_ RTR  --- 0 AODV 48 [0 ffffffff 1 800] ------- [1:255 -1:255 30 0] [0x2 1 1 [3 0] [1 4]] (REQUEST)
r 5.000988800 _2_ RTR  --- 0 AODV 48 [0 ffffffff 1 800] ------- [1:255 -1:255 30 0] [0x2 1 1 [3 0] [1 4]] (REQUEST)
s 5.001869400 _6_ RTR  --- 0 AODV 48 [0 ffffffff 1 800] ------- [6:255 -1:255 29 0] [0x2 2 1 [3 0] [1 4]] (REQUEST)
r 5.003017573 _1_ RTR  --- 0 AODV 48 [0 ffffffff 6 800] ------- [6:255 -1:255 29 0] [0x2 2 1 [3 0] [1 4]] (REQUEST)
r 5.003017826 _5_ RTR  --- 0 AODV 48 [0 ffffffff 6 800] ------- [6:255 -1:255 29 0] [0x2 2 1 [3 0] [1 4]] (REQUEST)
r 5.003017973 _8_ RTR  --- 0 AODV 48 [0 ffffffff 6 800] ------- [6:255 -1:255 29 0] [0x2 2 1 [3 0] [1 4]] (REQUEST)
s 5.004118417 _2_ RTR  --- 0 AODV 48 [0 ffffffff 1 800] ------- [2:255 -1:255 29 0] [0x2 2 1 [3 0] [1 4]] (REQUEST)
s 5.005400172 _8_ RTR  --- 0 AODV 48 [0 ffffffff 1 800] ------- [8:255 -1:255 29 0] [0x2 2 1 [3 0] [1 4]] (REQUEST)
r 5.005426851 _8_ RTR  --- 0 AODV 48 [0 ffffffff 2 800] ------- [2:255 -1:255 29 0] [0x2 2 1 [3 0] [1 4]] (REQUEST)
r 5.005427180 _0_ RTR  --- 0 AODV 48 [0 ffffffff 2 800] ------- [2:255 -1:255 29 0] [0x2 2 1 [3 0] [1 4]] (REQUEST)
r 5.005427217 _1_ RTR  --- 0 AODV 48 [0 ffffffff 2 800] ------- [2:255 -1:255 29 0] [0x2 2 1 [3 0] [1 4]] (REQUEST)
r 5.005427218 _4_ RTR  --- 0 AODV 48 [0 ffffffff 2 800] ------- [2:255 -1:255 29 0] [0x2 2 1 [3 0] [1 4]] (REQUEST)
s 5.005855163 _4_ RTR  --- 0 AODV 48 [0 ffffffff 2 800] ------- [4:255 -1:255 28 0] [0x2 3 1 [3 0] [1 4]] (REQUEST)
r 5.006588606 _2_ RTR  --- 0 AODV 48 [0 ffffffff 8 800] ------- [8:255 -1:255 29 0] [0x2 2 1 [3 0] [1 4]] (REQUEST)
r 5.006588610 _1_ RTR  --- 0 AODV 48 [0 ffffffff 8 800] ------- [8:255 -1:255 29 0] [0x2 2 1 [3 0] [1 4]] (REQUEST)
r 5.006588746 _6_ RTR  --- 0 AODV 48 [0 ffffffff 8 800] ------- [8:255 -1:255 29 0] [0x2 2 1 [3 0] [1 4]] (REQUEST)
r 5.006588894 _7_ RTR  --- 0 AODV 48 [0 ffffffff 8 800] ------- [8:255 -1:255 29 0] [0x2 2 1 [3 0] [1 4]] (REQUEST)
s 5.007068634 _0_ RTR  --- 0 AODV 48 [0 ffffffff 2 800] ------- [0:255 -1:255 28 0] [0x2 3 1 [3 0] [1 4]] (REQUEST)
r 5.008012015 _0_ RTR  --- 0 AODV 48 [0 ffffffff 4 800] ------- [4:255 -1:255 28 0] [0x2 3 1 [3 0] [1 4]] (REQUEST)
r 5.008012087 _2_ RTR  --- 0 AODV 48 [0 ffffffff 4 800] ------- [4:255 -1:255 28 0] [0x2 3 1 [3 0] [1 4]] (REQUEST)
s 5.008980067 _5_ RTR  --- 0 AODV 48 [0 ffffffff 1 800] ------- [5:255 -1:255 29 0] [0x2 2 1 [3 0] [1 4]] (REQUEST)
r 5.009070745 _4_ RTR  --- 0 AODV 48 [0 ffffffff 0 800] ------- [0:255 -1:255 28 0] [0x2 3 1 [3 0] [1 4]] (REQUEST)
r 5.009070777 _2_ RTR  --- 0 AODV 48 [0 ffffffff 0 800] ------- [0:255 -1:255 28 0] [0x2 3 1 [3 0] [1 4]] (REQUEST)
r 5.010268493 _6_ RTR  --- 0 AODV 48 [0 ffffffff 5 800] ------- [5:255 -1:255 29 0] [0x2 2 1 [3 0] [1 4]] (REQUEST)
r 5.010268580 _1_ RTR  --- 0 AODV 48 [0 ffffffff 5 800] ------- [5:255 -1:255 29 0] [0x2 2 1 [3 0] [1 4]] (REQUEST)
s 5.015186171 _7_ RTR  --- 0 AODV 48 [0 ffffffff 8 800] ------- [7:255 -1:255 28 0] [0x2 3 1 [3 0] [1 4]] (REQUEST)
r 5.016354892 _8_ RTR  --- 0 AODV 48 [0 ffffffff 7 800] ------- [7:255 -1:255 28 0] [0x2 3 1 [3 0] [1 4]] (REQUEST)
s 7.000000000 _1_ RTR  --- 0 AODV 48 [0 0 0 0] ------- [1:255 -1:255 30 0] [0x2 1 2 [3 0] [1 6]] (REQUEST)
r 7.001188178 _8_ RTR  --- 0 AODV 48 [0 ffffffff 1 800] ------- [1:255 -1:255 30 0] [0x2 1 2 [3 0] [1 6]] (REQUEST)
r 7.001188262 _6_ RTR  --- 0 AODV 48 [0 ffffffff 1 800] ------- [1:255 -1:255 30 0] [0x2 1 2 [3 0] [1 6]] (REQUEST)
r 7.001188541 _5_ RTR  --- 0 AODV 48 [0 ffffffff 1 800] ------- [1:255 -1:255 30 0] [0x2 1 2 [3 0] [1 6]] (REQUEST)
r 7.001188776 _2_ RTR  --- 0 AODV 48 [0 ffffffff 1 800] ------- [1:255 -1:255 30 0] [0x2 1 2 [3 0] [1 6]] (REQUEST)
s 7.003360371 _2_ RTR  --- 0 AODV 48 [0 ffffffff 1 800] ------- [2:255 -1:255 29 0] [0x2 2 2 [3 0] [1 6]] (REQUEST)
r 7.004668876 _0_ RTR  --- 0 AODV 48 [0 ffffffff 2 800] ------- [2:255 -1:255 29 0] [0x2 2 2 [3 0] [1 6]] (REQUEST)
r 7.004669009 _8_ RTR  --- 0 AODV 48 [0 ffffffff 2 800] ------- [2:255 -1:255 29 0] [0x2 2 2 [3 0] [1 6]] (REQUEST)
r 7.004669147 _1_ RTR  --- 0 AODV 48 [0 ffffffff 2 800] ------- [2:255 -1:255 29 0] [0x2 2 2 [3 0] [1 6]] (REQUEST)
s 7.008111246 _8_ RTR  --- 0 AODV 48 [0 ffffffff 1 800] ------- [8:255 -1:255 29 0] [0x2 2 2 [3 0] [1 6]] (REQUEST)
r 7.009419423 _1_ RTR  --- 0 AODV 48 [0 ffffffff 8 800] ------- [8:255 -1:255 29 0] [0x2 2 2 [3 0] [1 6]] (REQUEST)
r 7.009419683 _6_ RTR  --- 0 AODV 48 [0 ffffffff 8 800] ------- [8:255 -1:255 29 0] [0x2 2 2 [3 0] [1 6]] (REQUEST)
r 7.009419885 _2_ RTR  --- 0 AODV 48 [0 ffffffff 8 800] ------- [8:255 -1:255 29 0] [0x2 2 2 [3 0] [1 6]] (REQUEST)
r 7.009419959 _7_ RTR  --- 0 AODV 48 [0 ffffffff 8 800] ------- [8:255 -1:255 29 0] [0x2 2 2 [3 0] [1 6]] (REQUEST)
r 7.009419964 _5_ RTR  --- 0 AODV 48 [0 ffffffff 8 800] ------- [8:255 -1:255 29 0] [0x2 2 2 [3 0] [1 6]] (REQUEST)
s 7.009586793 _5_ RTR  --- 0 AODV 48 [0 ffffffff 1 800] ------- [5:255 -1:255 29 0] [0x2 2 2 [3 0] [1 6]] (REQUEST)
s 7.009808935 _6_ RTR  --- 0 AODV 48 [0 ffffffff 1 800] ------- [6:255 -1:255 29 0] [0x2 2 2 [3 0] [1 6]] (REQUEST)
r 7.010815079 _6_ RTR  --- 0 AODV 48 [0 ffffffff 5 800] ------- [5:255 -1:255 29 0] [0x2 2 2 [3 0] [1 6]] (REQUEST)
r 7.010815334 _1_ RTR  --- 0 AODV 48 [0 ffffffff 5 800] ------- [5:255 -1:255 29 0] [0x2 2 2 [3 0] [1 6]] (REQUEST)
r 7.010815511 _8_ RTR  --- 0 AODV 48 [0 ffffffff 5 800] ------- [5:255 -1:255 29 0] [0x2 2 2 [3 0] [1 6]] (REQUEST)
s 7.011442366 _0_ RTR  --- 0 AODV 48 [0 ffffffff 2 800] ------- [0:255 -1:255 28 0] [0x2 3 2 [3 0] [1 6]] (REQUEST)
r 7.011873342 _1_ RTR  --- 0 AODV 48 [0 ffffffff 6 800] ------- [6:255 -1:255 29 0] [0x2 2 2 [3 0] [1 6]] (REQUEST)
r 7.011873364 _5_ RTR  --- 0 AODV 48 [0 ffffffff 6 800] ------- [6:255 -1:255 29 0] [0x2 2 2 [3 0] [1 6]] (REQUEST)
r 7.011873516 _8_ RTR  --- 0 AODV 48 [0 ffffffff 6 800] ------- [6:255 -1:255 29 0] [0x2 2 2 [3 0] [1 6]] (REQUEST)
s 7.013475149 _7_ RTR  --- 0 AODV 48 [0 ffffffff 8 800] ------- [7:255 -1:255 28 0] [0x2 3 2 [3 0] [1 6]] (REQUEST)
r 7.013657099 _2_ RTR  --- 0 AODV 48 [0 ffffffff 0 800] ------- [0:255 -1:255 28 0] [0x2 3 2 [3 0] [1 6]] (REQUEST)
r 7.013657386 _4_ RTR  --- 0 AODV 48 [0 ffffffff 0 800] ------- [0:255 -1:255 28 0] [0x2 3 2 [3 0] [1 6]] (REQUEST)
s 7.014241412 _4_ RTR  --- 0 AODV 48 [0 ffffffff 0 800] ------- [4:255 -1:255 27 0] [0x2 4 2 [3 0] [1 6]] (REQUEST)
r 7.015120603 _8_ RTR  --- 0 AODV 48 [0 ffffffff 7 800] ------- [7:255 -1:255 28 0] [0x2 3 2 [3 0] [1 6]] (REQUEST)
r 7.016503621 _0_ RTR  --- 0 AODV 48 [0 ffffffff 4 800] ------- [4:255 -1:255 27 0] [0x2 4 2 [3 0] [1 6]] (REQUEST)
s 8.000000000 _1_ AGT  --- 1 tcp 40 [0 0 0 0] ------- [1:0 3:0 32 0] [0 0] 0 0
r 8.000000000 _1_ RTR  --- 1 tcp 40 [0 0 0 0] ------- [1:0 3:0 32 0] [0 0] 0 0
M 10.00000 0 (106.75, 269.89, 0.00), (548.81, 304.75), 20.00
M 10.00000 1 (370.72, 335.29, 0.00), (118.88, 93.19), 20.00
M 10.00000 2 (156.60, 246.96, 0.00), (267.67, 257.35), 20.00
M 10.00000 3 (615.95, 618.29, 0.00), (97.44, 383.72), 20.00
M 10.00000 4 (27.99, 528.67, 0.00), (630.93, 469.46), 20.00
M 10.00000 5 (524.56, 244.54, 0.00), (132.92, 491.44), 20.00
M 10.00000 6 (532.15, 364.22, 0.00), (602.47, 13.52), 20.00
M 10.00000 7 (276.44, 486.94, 0.00), (684.03, 472.47), 20.00
M 10.00000 8 (433.00, 318.12, 0.00), (610.50, 693.09), 20.00
M 10.00000 9 (538.86, 637.70, 0.00), (504.44, 101.53), 20.00
s 11.000000000 _1_ RTR  --- 0 AODV 48 [0 0 0 0] ------- [1:255 -1:255 30 0] [0x2 1 3 [3 0] [1 8]] (REQUEST)
r 11.001228288 _8_ RTR  --- 0 AODV 48 [0 ffffffff 1 800] ------- [1:255 -1:255 30 0] [0x2 1 3 [3 0] [1 8]] (REQUEST)
r 11.001228551 _5_ RTR  --- 0 AODV 48 [0 ffffffff 1 800] ------- [1:255 -1:255 30 0] [0x2 1 3 [3 0] [1 8]] (REQUEST)
r 11.001228584 _7_ RTR  --- 0 AODV 48 [0 ffffffff 1 800] ------- [1:255 -1:255 30 0] [0x2 1 3 [3 0] [1 8]] (REQUEST)
r 11.001228604 _6_ RTR  --- 0 AODV 48 [0 ffffffff 1 800] ------- [1:255 -1:255 30 0] [0x2 1 3 [3 0] [1 8]] (REQUEST)
r 11.001228646 _2_ RTR  --- 0 AODV 48 [0 ffffffff 1 800] ------- [1:255 -1:255 30 0] [0x2 1 3 [3 0] [1 8]] (REQUEST)
r 11.001228783 _0_ RTR  --- 0 AODV 48 [0 ffffffff 1 800] ------- [1:255 -1:255 30 0] [0x2 1 3 [3 0] [1 8]] (REQUEST)
s 11.003798226 _8_ RTR  --- 0 AODV 48 [0 ffffffff 1 800] ------- [8:255 -1:255 29 0] [0x2 2 3 [3 0] [1 8]] (REQUEST)
s 11.003846888 _2_ RTR  --- 0 AODV 48 [0 ffffffff 1 800] ------- [2:255 -1:255 29 0] [0x2 2 3 [3 0] [1 8]] (REQUEST)
r 11.004875070 _0_ RTR  --- 0 AODV 48 [0 ffffffff 2 800] ------- [2:255 -1:255 29 0] [0x2 2 3 [3 0] [1 8]] (REQUEST)
r 11.004875534 _1_ RTR  --- 0 AODV 48 [0 ffffffff 2 800] ------- [2:255 -1:255 29 0] [0x2 2 3 [3 0] [1 8]] (REQUEST)
r 11.006238107 _1_ RTR  --- 0 AODV 48 [0 ffffffff 8 800] ------- [8:255 -1:255 29 0] [0x2 2 3 [3 0] [1 8]] (REQUEST)
r 11.006238134 _6_ RTR  --- 0 AODV 48 [0 ffffffff 8 800] ------- [8:255 -1:255 29 0] [0x2 2 3 [3 0] [1 8]] (REQUEST)
r 11.006238166 _5_ RTR  --- 0 AODV 48 [0 ffffffff 8 800] ------- [8:255 -1:255 29 0] [0x2 2 3 [3 0] [1 8]] (REQUEST)
r 11.006238513 _7_ RTR  --- 0 AODV 48 [0 ffffffff 8 800] ------- [8:255 -1:255 29 0] [0x2 2 3 [3 0] [1 8]] (REQUEST)
s 11.006676804 _7_ RTR  --- 0 AODV 48 [0 ffffffff 1 800] ------- [7:255 -1:255 29 0] [0x2 2 3 [3 0] [1 8]] (REQUEST)
s 11.006777180 _0_ RTR  --- 0 AODV 48 [0 ffffffff 1 800] ------- [0:255 -1:255 29 0] [0x2 2 3 [3 0] [1 8]] (REQUEST)
r 11.007865389 _1_ RTR  --- 0 AODV 48 [0 ffffffff 7 800] ------- [7:255 -1:255 29 0] [0x2 2 3 [3 0] [1 8]] (REQUEST)
r 11.007865499 _8_ RTR  --- 0 AODV 48 [0 ffffffff 7 800] ------- [7:255 -1:255 29 0] [0x2 2 3 [3 0] [1 8]] (REQUEST)
s 11.008215283 _5_ RTR  --- 0 AODV 48 [0 ffffffff 1 800] ------- [5:255 -1:255 29 0] [0x2 2 3 [3 0] [1 8]] (REQUEST)
r 11.009183595 _6_ RTR  --- 0 AODV 48 [0 ffffffff 5 800] ------- [5:255 -1:255 29 0] [0x2 2 3 [3 0] [1 8]] (REQUEST)
r 11.009183631 _8_ RTR  --- 0 AODV 48 [0 ffffffff 5 800] ------- [5:255 -1:255 29 0] [0x2 2 3 [3 0] [1 8]] (REQUEST)
r 11.009183833 _1_ RTR  --- 0 AODV 48 [0 ffffffff 5 800] ------- [5:255 -1:255 29 0] [0x2 2 3 [3 0] [1 8]] (REQUEST)
s 11.009995161 _6_ RTR  --- 0 AODV 48 [0 ffffffff 1 800] ------- [6:255 -1:255 29 0] [0x2 2 3 [3 0] [1 8]] (REQUEST)
r 11.010566735 _2_ RTR  --- 0 AODV 48 [0 ffffffff 0 800] ------- [0:255 -1:255 29 0] [0x2 2 3 [3 0] [1 8]] (REQUEST)
r 11.010567335 _1_ RTR  --- 0 AODV 48 [0 ffffffff 0 800] ------- [0:255 -1:255 29 0] [0x2 2 3 [3 0] [1 8]] (REQUEST)
r 11.012070250 _5_ RTR  --- 0 AODV 48 [0 ffffffff 6 800] ------- [6:255 -1:255 29 0] [0x2 2 3 [3 0] [1 8]] (REQUEST)
r 11.012070254 _8_ RTR  --- 0 AODV 48 [0 ffffffff 6 800] ------- [6:255 -1:255 29 0] [0x2 2 3 [3 0] [1 8]] (REQUEST)
r 11.012070543 _1_ RTR  --- 0 AODV 48 [0 ffffffff 6 800] ------- [6:255 -1:255 29 0] [0x2 2 3 [3 0] [1 8]] (REQUEST)
s 14.000000000 _1_ AGT  --- 2 tcp 40 [0 0 0 0] ------- [1:0 3:0 32 0] [0 0] 0 0
r 14.000000000 _1_ RTR  --- 2 tcp 40 [0 0 0 0] ------- [1:0 3:0 32 0] [0 0] 0 0
M 15.00000 0 (206.44, 277.75, 0.00), (213.26, 34.86), 20.00
M 15.00000 1 (298.63, 265.98, 0.00), (112.27, 614.98), 20.00
M 15.00000 2 (256.16, 256.28, 0.00), (221.80, 274.82), 20.00
M 15.00000 3 (524.84, 577.08, 0.00), (386.89, 28.19), 20.00
M 15.00000 4 (127.51, 518.90, 0.00), (585.06, 527.66), 20.00
M 15.00000 5 (439.96, 297.87, 0.00), (425.22, 628.32), 20.00
M 15.00000 6 (551.81, 266.17, 0.00), (174.53, 24.77), 20.00
M 15.00000 7 (376.38, 483.39, 0.00), (73.11, 261.87), 20.00
M 15.00000 8 (475.78, 408.51, 0.00), (182.55, 701.61), 20.00
M 15.00000 9 (532.45, 537.90, 0.00), (421.06, 556.87), 20.00
s 16.500000000 _1_ RTR  --- 0 AODV 48 [0 0 0 0] ------- [1:255 -1:255 30 0] [0x2 1 4 [3 0] [1 10]] (REQUEST)
r 16.500988197 _2_ RTR  --- 0 AODV 48 [0 ffffffff 1 800] ------- [1:255 -1:255 30 0] [0x2 1 4 [3 0] [1 10]] (REQUEST)
r 16.500988297 _0_ RTR  --- 0 AODV 48 [0 ffffffff 1 800] ------- [1:255 -1:255 30 0] [0x2 1 4 [3 0] [1 10]] (REQUEST)
r 16.500988527 _5_ RTR  --- 0 AODV 48 [0 ffffffff 1 800] ------- [1:255 -1:255 30 0] [0x2 1 4 [3 0] [1 10]] (REQUEST)
r 16.500988620 _7_ RTR  --- 0 AODV 48 [0 ffffffff 1 800] ------- [1:255 -1:255 30 0] [0x2 1 4 [3 0] [1 10]] (REQUEST)
r 16.500988729 _8_ RTR  --- 0 AODV 48 [0 ffffffff 1 800] ------- [1:255 -1:255 30 0] [0x2 1 4 [3 0] [1 10]] (REQUEST)
r 16.500988819 _6_ RTR  --- 0 AODV 48 [0 ffffffff 1 800] ------- [1:255 -1:255 30 0] [0x2 1 4 [3 0] [1 10]] (REQUEST)
s 16.501870730 _8_ RTR  --- 0 AODV 48 [0 ffffffff 1 800] ------- [8:255 -1:255 29 0] [0x2 2 4 [3 0] [1 10]] (REQUEST)
r 16.502879074 _5_ RTR  --- 0 AODV 48 [0 ffffffff 8 800] ------- [8:255 -1:255 29 0] [0x2 2 4 [3 0] [1 10]] (REQUEST)
r 16.502879092 _7_ RTR  --- 0 AODV 48 [0 ffffffff 8 800] ------- [8:255 -1:255 29 0] [0x2 2 4 [3 0] [1 10]] (REQUEST)
r 16.502879140 _9_ RTR  --- 0 AODV 48 [0 ffffffff 8 800] ------- [8:255 -1:255 29 0] [0x2 2 4 [3 0] [1 10]] (REQUEST)
r 16.502879176 _3_ RTR  --- 0 AODV 48 [0 ffffffff 8 800] ------- [8:255 -1:255 29 0] [0x2 2 4 [3 0] [1 10]] (REQUEST)
s 16.502879176 _3_ RTR  --- 0 AODV 44 [0 0 0 0] ------- [3:255 1:255 30 8] [0x4 1 [3 4] 10.000000] (REPLY)
r 16.502879375 _6_ RTR  --- 0 AODV 48 [0 ffffffff 8 800] ------- [8:255 -1:255 29 0] [0x2 2 4 [3 0] [1 10]] (REQUEST)
r 16.502879458 _1_ RTR  --- 0 AODV 48 [0 ffffffff 8 800] ------- [8:255 -1:255 29 0] [0x2 2 4 [3 0] [1 10]] (REQUEST)
s 16.505200820 _7_ RTR  --- 0 AODV 48 [0 ffffffff 1 800] ------- [7:255 -1:255 29 0] [0x2 2 4 [3 0] [1 10]] (REQUEST)
s 16.506317283 _0_ RTR  --- 0 AODV 48 [0 ffffffff 1 800] ------- [0:255 -1:255 29 0] [0x2 2 4 [3 0] [1 10]] (REQUEST)
r 16.507360300 _8_ RTR  --- 0 AODV 44 [13a 8 3 800] ------- [3:255 1:255 30 8] [0x4 1 [3 4] 10.000000] (REPLY)
f 16.507360300 _8_ RTR  --- 0 AODV 44 [13a 8 3 800] ------- [3:255 1:255 29 1] [0x4 2 [3 4] 10.000000] (REPLY)
s 16.508339438 _5_ RTR  --- 0 AODV 48 [0 ffffffff 1 800] ------- [5:255 -1:255 29 0] [0x2 2 4 [3 0] [1 10]] (REQUEST)
r 16.509033023 _8_ RTR  --- 0 AODV 48 [0 ffffffff 7 800] ------- [7:255 -1:255 29 0] [0x2 2 4 [3 0] [1 10]] (REQUEST)
r 16.509033203 _5_ RTR  --- 0 AODV 48 [0 ffffffff 7 800] ------- [7:255 -1:255 29 0] [0x2 2 4 [3 0] [1 10]] (REQUEST)
r 16.509033226 _9_ RTR  --- 0 AODV 48 [0 ffffffff 7 800] ------- [7:255 -1:255 29 0] [0x2 2 4 [3 0] [1 10]] (REQUEST)
r 16.509033277 _3_ RTR  --- 0 AODV 48 [0 ffffffff 7 800] ------- [7:255 -1:255 29 0] [0x2 2 4 [3 0] [1 10]] (REQUEST)
r 16.509033280 _1_ RTR  --- 0 AODV 48 [0 ffffffff 7 800] ------- [7:255 -1:255 29 0] [0x2 2 4 [3 0] [1 10]] (REQUEST)
r 16.509033334 _4_ RTR  --- 0 AODV 48 [0 ffffffff 7 800] ------- [7:255 -1:255 29 0] [0x2 2 4 [3 0] [1 10]] (REQUEST)
r 16.509033429 _2_ RTR  --- 0 AODV 48 [0 ffffffff 7 800] ------- [7:255 -1:255 29 0] [0x2 2 4 [3 0] [1 10]] (REQUEST)
s 16.509132821 _6_ RTR  --- 0 AODV 48 [0 ffffffff 1 800] ------- [6:255 -1:255 29 0] [0x2 2 4 [3 0] [1 10]] (REQUEST)
s 16.509639251 _2_ RTR  --- 0 AODV 48 [0 ffffffff 1 800] ------- [2:255 -1:255 29 0] [0x2 2 4 [3 0] [1 10]] (REQUEST)
s 16.511625603 _9_ RTR  --- 0 AODV 48 [0 ffffffff 8 800] ------- [9:255 -1:255 28 0] [0x2 3 4 [3 0] [1 10]] (REQUEST)
r 16.512705623 _8_ RTR  --- 0 AODV 48 [0 ffffffff 5 800] ------- [5:255 -1:255 29 0] [0x2 2 4 [3 0] [1 10]] (REQUEST)
r 16.512705671 _6_ RTR  --- 0 AODV 48 [0 ffffffff 5 800] ------- [5:255 -1:255 29 0] [0x2 2 4 [3 0] [1 10]] (REQUEST)
r 16.512705807 _1_ RTR  --- 0 AODV 48 [0 ffffffff 5 800] ------- [5:255 -1:255 29 0] [0x2 2 4 [3 0] [1 10]] (REQUEST)
r 16.512705821 _7_ RTR  --- 0 AODV 48 [0 ffffffff 5 800] ------- [5:255 -1:255 29 0] [0x2 2 4 [3 0] [1 10]] (REQUEST)
r 16.512706002 _2_ RTR  --- 0 AODV 48 [0 ffffffff 5 800] ------- [5:255 -1:255 29 0] [0x2 2 4 [3 0] [1 10]] (REQUEST)
r 16.512706027 _9_ RTR  --- 0 AODV 48 [0 ffffffff 5 800] ------- [5:255 -1:255 29 0] [0x2 2 4 [3 0] [1 10]] (REQUEST)
r 16.512706058 _3_ RTR  --- 0 AODV 48 [0 ffffffff 5 800] ------- [5:255 -1:255 29 0] [0x2 2 4 [3 0] [1 10]] (REQUEST)
r 16.512706096 _0_ RTR  --- 0 AODV 48 [0 ffffffff 5 800] ------- [5:255 -1:255 29 0] [0x2 2 4 [3 0] [1 10]] (REQUEST)
s 16.513097109 _4_ RTR  --- 0 AODV 48 [0 ffffffff 7 800] ------- [4:255 -1:255 28 0] [0x2 3 4 [3 0] [1 10]] (REQUEST)
r 16.513644109 _0_ RTR  --- 0 AODV 48 [0 ffffffff 2 800] ------- [2:255 -1:255 29 0] [0x2 2 4 [3 0] [1 10]] (REQUEST)
r 16.513644199 _1_ RTR  --- 0 AODV 48 [0 ffffffff 2 800] ------- [2:255 -1:255 29 0] [0x2 2 4 [3 0] [1 10]] (REQUEST)
r 16.513644725 _5_ RTR  --- 0 AODV 48 [0 ffffffff 2 800] ------- [2:255 -1:255 29 0] [0x2 2 4 [3 0] [1 10]] (REQUEST)
r 16.513644770 _7_ RTR  --- 0 AODV 48 [0 ffffffff 2 800] ------- [2:255 -1:255 29 0] [0x2 2 4 [3 0] [1 10]] (REQUEST)
r 16.514862216 _2_ RTR  --- 0 AODV 48 [0 ffffffff 0 800] ------- [0:255 -1:255 29 0] [0x2 2 4 [3 0] [1 10]] (REQUEST)
r 16.514862407 _1_ RTR  --- 0 AODV 48 [0 ffffffff 0 800] ------- [0:255 -1:255 29 0] [0x2 2 4 [3 0] [1 10]] (REQUEST)
r 16.514862926 _5_ RTR  --- 0 AODV 48 [0 ffffffff 0 800] ------- [0:255 -1:255 29 0] [0x2 2 4 [3 0] [1 10]] (REQUEST)
r 16.516165565 _5_ RTR  --- 0 AODV 48 [0 ffffffff 6 800] ------- [6:255 -1:255 29 0] [0x2 2 4 [3 0] [1 10]] (REQUEST)
r 16.516165819 _8_ RTR  --- 0 AODV 48 [0 ffffffff 6 800] ------- [6:255 -1:255 29 0] [0x2 2 4 [3 0] [1 10]] (REQUEST)
r 16.516165992 _1_ RTR  --- 0 AODV 48 [0 ffffffff 6 800] ------- [6:255 -1:255 29 0] [0x2 2 4 [3 0] [1 10]] (REQUEST)
r 16.517950004 _1_ RTR  --- 0 AODV 44 [13a 1 8 800] ------- [3:255 1:255 29 1] [0x4 2 [3 4] 10.000000] (REPLY)
s 16.517950004 _1_ RTR  --- 0 tcp 40 [0 0 0 0] ------- [1:0 3:0 30 8] [0 0] 0 0
r 16.519776188 _8_ RTR  --- 0 tcp 40 [13a 8 1 800] ------- [1:0 3:0 30 8] [0 0] 1 0
f 16.519776188 _8_ RTR  --- 0 tcp 40 [13a 8 1 800] ------- [1:0 3:0 29 3] [0 0] 1 0
r 16.521741523 _3_ AGT  --- 0 tcp 40 [13a 3 8 800] ------- [1:0 3:0 29 3] [0 0] 2 0
s 16.521741523 _3_ AGT  --- 3 ack 40 [0 0 0 0] ------- [3:0 1:0 32 0] [0 0] 0 0
r 16.521741523 _3_ RTR  --- 3 ack 40 [0 0 0 0] ------- [3:0 1:0 32 0] [0 0] 0 0
s 16.521741523 _3_ RTR  --- 3 ack 40 [0 0 0 0] ------- [3:0 1:0 30 8] [0 0] 0 0
r 16.522973627 _3_ RTR  --- 0 AODV 48 [0 ffffffff 9 800] ------- [9:255 -1:255 28 0] [0x2 3 4 [3 0] [1 10]] (REQUEST)
r 16.522973984 _8_ RTR  --- 0 AODV 48 [0 ffffffff 9 800] ------- [9:255 -1:255 28 0] [0x2 3 4 [3 0] [1 10]] (REQUEST)
r 16.522974140 _7_ RTR  --- 0 AODV 48 [0 ffffffff 9 800] ------- [9:255 -1:255 28 0] [0x2 3 4 [3 0] [1 10]] (REQUEST)
r 16.522974322 _5_ RTR  --- 0 AODV 48 [0 ffffffff 9 800] ------- [9:255 -1:255 28 0] [0x2 3 4 [3 0] [1 10]] (REQUEST)
r 16.524784961 _8_ RTR  --- 3 ack 40 [13a 8 3 800] ------- [3:0 1:0 30 8] [0 0] 1 0
f 16.524784961 _8_ RTR  --- 3 ack 40 [13a 8 3 800] ------- [3:0 1:0 29 1] [0 0] 1 0
r 16.526711145 _1_ AGT  --- 3 ack 40 [13a 1 8 800] ------- [3:0 1:0 29 1] [0 0] 2 0
s 16.526711145 _1_ AGT  --- 4 tcp 1040 [0 0 0 0] ------- [1:0 3:0 32 0] [1 0] 0 0
r 16.526711145 _1_ RTR  --- 4 tcp 1040 [0 0 0 0] ------- [1:0 3:0 32 0] [1 0] 0 0
s 16.526711145 _1_ RTR  --- 4 tcp 1040 [0 0 0 0] ------- [1:0 3:0 30 8] [1 0] 0 0
s 16.527950004 _1_ RTR  --- 1 tcp 40 [0 0 0 0] ------- [1:0 3:0 30 8] [0 0] 0 0
r 16.536737329 _8_ RTR  --- 4 tcp 1040 [13a 8 1 800] ------- [1:0 3:0 30 8] [1 0] 1 0
f 16.536737329 _8_ RTR  --- 4 tcp 1040 [13a 8 1 800] ------- [1:0 3:0 29 3] [1 0] 1 0
s 16.537950004 _1_ RTR  --- 2 tcp 40 [0 0 0 0] ------- [1:0 3:0 30 8] [0 0] 0 0
r 16.546582659 _3_ AGT  --- 4 tcp 1040 [13a 3 8 800] ------- [1:0 3:0 29 3] [1 0] 2 0
s 16.546582659 _3_ AGT  --- 5 ack 40 [0 0 0 0] ------- [3:0 1:0 32 0] [1 0] 0 0
r 16.546582659 _3_ RTR  --- 5 ack 40 [0 0 0 0] ------- [3:0 1:0 32 0] [1 0] 0 0
s 16.546582659 _3_ RTR  --- 5 ack 40 [0 0 0 0] ------- [3:0 1:0 30 8] [1 0] 0 0
r 16.548647987 _8_ RTR  --- 5 ack 40 [13a 8 3 800] ------- [3:0 1:0 30 8] [1 0] 1 0
f 16.548647987 _8_ RTR  --- 5 ack 40 [13a 8 3 800] ------- [3:0 1:0 29 1] [1 0] 1 0
r 16.550474170 _1_ AGT  --- 5 ack 40 [13a 1 8 800] ------- [3:0 1:0 29 1] [1 0] 2 0
s 16.550474170 _1_ AGT  --- 6 tcp 1040 [0 0 0 0] ------- [1:0 3:0 32 0] [2 0] 0 0
r 16.550474170 _1_ RTR  --- 6 tcp 1040 [0 0 0 0] ------- [1:0 3:0 32 0] [2 0] 0 0
s 16.550474170 _1_ AGT  --- 7 tcp 1040 [0 0 0 0] ------- [1:0 3:0 32 0] [3 0] 0 0
r 16.550474170 _1_ RTR  --- 7 tcp 1040 [0 0 0 0] ------- [1:0 3:0 32 0] [3 0] 0 0
s 16.550474170 _1_ RTR  --- 6 tcp 1040 [0 0 0 0] ------- [1:0 3:0 30 8] [2 0] 0 0
s 16.550474170 _1_ RTR  --- 7 tcp 1040 [0 0 0 0] ------- [1:0 3:0 30 8] [3 0] 0 0
r 16.552560352 _8_ RTR  --- 1 tcp 40 [13a 8 1 800] ------- [1:0 3:0 30 8] [0 0] 1 0
f 16.552560352 _8_ RTR  --- 1 tcp 40 [13a 8 1 800] ------- [1:0 3:0 29 3] [0 0] 1 0
r 16.554665679 _3_ AGT  --- 1 tcp 40 [13a 3 8 800] ------- [1:0 3:0 29 3] [0 0] 2 0
s 16.554665679 _3_ AGT  --- 8 ack 40 [0 0 0 0] ------- [3:0 1:0 32 0] [1 0] 0 0
r 16.554665679 _3_ RTR  --- 8 ack 40 [0 0 0 0] ------- [3:0 1:0 32 0] [1 0] 0 0
s 16.554665679 _3_ RTR  --- 8 ack 40 [0 0 0 0] ------- [3:0 1:0 30 8] [1 0] 0 0
r 16.556911004 _8_ RTR  --- 8 ack 40 [13a 8 3 800] ------- [3:0 1:0 30 8] [1 0] 1 0
f 16.556911004 _8_ RTR  --- 8 ack 40 [13a 8 3 800] ------- [3:0 1:0 29 1] [1 0] 1 0
r 16.558757186 _1_ AGT  --- 8 ack 40 [13a 1 8 800] ------- [3:0 1:0 29 1] [1 0] 2 0
s 16.558757186 _1_ AGT  --- 9 tcp 1040 [0 0 0 0] ------- [1:0 3:0 32 0] [4 0] 0 0
r 16.558757186 _1_ RTR  --- 9 tcp 1040 [0 0 0 0] ------- [1:0 3:0 32 0] [4 0] 0 0
s 16.558757186 _1_ RTR  --- 9 tcp 1040 [0 0 0 0] ------- [1:0 3:0 30 8] [4 0] 0 0
r 16.560883368 _8_ RTR  --- 2 tcp 40 [13a 8 1 800] ------- [1:0 3:0 30 8] [0 0] 1 0
f 16.560883368 _8_ RTR  --- 2 tcp 40 [13a 8 1 800] ------- [1:0 3:0 29 3] [0 0] 1 0
r 16.562728693 _3_ AGT  --- 2 tcp 40 [13a 3 8 800] ------- [1:0 3:0 29 3] [0 0] 2 0
s 16.562728693 _3_ AGT  --- 10 ack 40 [0 0 0 0] ------- [3:0 1:0 32 0] [1 0] 0 0
r 16.562728693 _3_ RTR  --- 10 ack 40 [0 0 0 0] ------- [3:0 1:0 32 0] [1 0] 0 0
s 16.562728693 _3_ RTR  --- 10 ack 40 [0 0 0 0] ------- [3:0 1:0 30 8] [1 0] 0 0
r 16.564614017 _8_ RTR  --- 10 ack 40 [13a 8 3 800] ------- [3:0 1:0 30 8] [1 0] 1 0
f 16.564614017 _8_ RTR  --- 10 ack 40 [13a 8 3 800] ------- [3:0 1:0 29 1] [1 0] 1 0
r 16.574510905 _8_ RTR  --- 6 tcp 1040 [13a 8 1 800] ------- [1:0 3:0 30 8] [2 0] 1 0
f 16.574510905 _8_ RTR  --- 6 tcp 1040 [13a 8 1 800] ------- [1:0 3:0 29 3] [2 0] 1 0
r 16.576617086 _1_ AGT  --- 10 ack 40 [13a 1 8 800] ------- [3:0 1:0 29 1] [1 0] 2 0
s 16.576617086 _1_ AGT  --- 11 tcp 1040 [0 0 0 0] ------- [1:0 3:0 32 0] [5 0] 0 0
r 16.576617086 _1_ RTR  --- 11 tcp 1040 [0 0 0 0] ------- [1:0 3:0 32 0] [5 0] 0 0
s 16.576617086 _1_ RTR  --- 11 tcp 1040 [0 0 0 0] ------- [1:0 3:0 30 8] [5 0] 0 0
r 16.586563267 _8_ RTR  --- 7 tcp 1040 [13a 8 1 800] ------- [1:0 3:0 30 8] [3 0] 1 0
f 16.586563267 _8_ RTR  --- 7 tcp 1040 [13a 8 1 800] ------- [1:0 3:0 29 3] [3 0] 1 0
r 16.596710174 _8_ RTR  --- 9 tcp 1040 [13a 8 1 800] ------- [1:0 3:0 30 8] [4 0] 1 0
f 16.596710174 _8_ RTR  --- 9 tcp 1040 [13a 8 1 800] ------- [1:0 3:0 29 3] [4 0] 1 0
r 16.606595489 _3_ AGT  --- 6 tcp 1040 [13a 3 8 800] ------- [1:0 3:0 29 3] [2 0] 2 0
s 16.606595489 _3_ AGT  --- 12 ack 40 [0 0 0 0] ------- [3:0 1:0 32 0] [2 0] 0 0
r 16.606595489 _3_ RTR  --- 12 ack 40 [0 0 0 0] ------- [3:0 1:0 32 0] [2 0] 0 0
s 16.606595489 _3_ RTR  --- 12 ack 40 [0 0 0 0] ------- [3:0 1:0 30 8] [2 0] 0 0
r 16.616601240 _3_ AGT  --- 7 tcp 1040 [13a 3 8 800] ------- [1:0 3:0 29 3] [3 0] 2 0
s 16.616601240 _3_ AGT  --- 13 ack 40 [0 0 0 0] ------- [3:0 1:0 32 0] [3 0] 0 0
r 16.616601240 _3_ RTR  --- 13 ack 40 [0 0 0 0] ------- [3:0 1:0 32 0] [3 0] 0 0
s 16.616601240 _3_ RTR  --- 13 ack 40 [0 0 0 0] ------- [3:0 1:0 30 8] [3 0] 0 0
r 16.626566987 _3_ AGT  --- 9 tcp 1040 [13a 3 8 800] ------- [1:0 3:0 29 3] [4 0] 2 0
s 16.626566987 _3_ AGT  --- 14 ack 40 [0 0 0 0] ------- [3:0 1:0 32 0] [4 0] 0 0
r 16.626566987 _3_ RTR  --- 14 ack 40 [0 0 0 0] ------- [3:0 1:0 32 0] [4 0] 0 0
s 16.626566987 _3_ RTR  --- 14 ack 40 [0 0 0 0] ------- [3:0 1:0 30 8] [4 0] 0 0
r 16.628612295 _8_ RTR  --- 12 ack 40 [13a 8 3 800] ------- [3:0 1:0 30 8] [2 0] 1 0
f 16.628612295 _8_ RTR  --- 12 ack 40 [13a 8 3 800] ------- [3:0 1:0 29 1] [2 0] 1 0
r 16.630438039 _8_ RTR  --- 13 ack 40 [13a 8 3 800] ------- [3:0 1:0 30 8] [3 0] 1 0
f 16.630438039 _8_ RTR  --- 13 ack 40 [13a 8 3 800] ------- [3:0 1:0 29 1] [3 0] 1 0
r 16.632304217 _1_ AGT  --- 12 ack 40 [13a 1 8 800] ------- [3:0 1:0 29 1] [2 0] 2 0
r 16.634131120 _1_ AGT  --- 13 ack 40 [13a 1 8 800] ------- [3:0 1:0 29 1] [3 0] 2 0
r 16.644097298 _8_ RTR  --- 11 tcp 1040 [13a 8 1 800] ------- [1:0 3:0 30 8] [5 0] 1 0
f 16.644097298 _8_ RTR  --- 11 tcp 1040 [13a 8 1 800] ------- [1:0 3:0 29 3] [5 0] 1 0
r 16.646053018 _8_ RTR  --- 14 ack 40 [13a 8 3 800] ------- [3:0 1:0 30 8] [4 0] 1 0
f 16.646053018 _8_ RTR  --- 14 ack 40 [13a 8 3 800] ------- [3:0 1:0 29 1] [4 0] 1 0
r 16.656178321 _3_ AGT  --- 11 tcp 1040 [13a 3 8 800] ------- [1:0 3:0 29 3] [5 0] 2 0
s 16.656178321 _3_ AGT  --- 15 ack 40 [0 0 0 0] ------- [3:0 1:0 32 0] [5 0] 0 0
r 16.656178321 _3_ RTR  --- 15 ack 40 [0 0 0 0] ------- [3:0 1:0 32 0] [5 0] 0 0
s 16.656178321 _3_ RTR  --- 15 ack 40 [0 0 0 0] ------- [3:0 1:0 30 8] [5 0] 0 0
r 16.658303621 _8_ RTR  --- 15 ack 40 [13a 8 3 800] ------- [3:0 1:0 30 8] [5 0] 1 0
f 16.658303621 _8_ RTR  --- 15 ack 40 [13a 8 3 800] ------- [3:0 1:0 29 1] [5 0] 1 0
r 16.660429797 _1_ AGT  --- 14 ack 40 [13a 1 8 800] ------- [3:0 1:0 29 1] [4 0] 2 0
s 16.660429797 _1_ AGT  --- 16 tcp 1040 [0 0 0 0] ------- [1:0 3:0 32 0] [6 0] 0 0
r 16.660429797 _1_ RTR  --- 16 tcp 1040 [0 0 0 0] ------- [1:0 3:0 32 0] [6 0] 0 0
s 16.660429797 _1_ AGT  --- 17 tcp 1040 [0 0 0 0] ------- [1:0 3:0 32 0] [7 0] 0 0
r 16.660429797 _1_ RTR  --- 17 tcp 1040 [0 0 0 0] ------- [1:0 3:0 32 0] [7 0] 0 0
s 16.660429797 _1_ RTR  --- 16 tcp 1040 [0 0 0 0] ------- [1:0 3:0 30 8] [6 0] 0 0
s 16.660429797 _1_ RTR  --- 17 tcp 1040 [0 0 0 0] ------- [1:0 3:0 30 8] [7 0] 0 0
r 16.662396699 _1_ AGT  --- 15 ack 40 [13a 1 8 800] ------- [3:0 1:0 29 1] [5 0] 2 0
s 16.662396699 _1_ AGT  --- 18 tcp 1040 [0 0 0 0] ------- [1:0 3:0 32 0] [8 0] 0 0
r 16.662396699 _1_ RTR  --- 18 tcp 1040 [0 0 0 0] ------- [1:0 3:0 32 0] [8 0] 0 0
s 16.662396699 _1_ RTR  --- 18 tcp 1040 [0 0 0 0] ------- [1:0 3:0 30 8] [8 0] 0 0
r 16.672602875 _8_ RTR  --- 16 tcp 1040 [13a 8 1 800] ------- [1:0 3:0 30 8] [6 0] 1 0
f 16.672602875 _8_ RTR  --- 16 tcp 1040 [13a 8 1 800] ------- [1:0 3:0 29 3] [6 0] 1 0
r 16.682529775 _8_ RTR  --- 17 tcp 1040 [13a 8 1 800] ------- [1:0 3:0 30 8] [7 0] 1 0
f 16.682529775 _8_ RTR  --- 17 tcp 1040 [13a 8 1 800] ------- [1:0 3:0 29 3] [7 0] 1 0
r 16.692536675 _8_ RTR  --- 18 tcp 1040 [13a 8 1 800] ------- [1:0 3:0 30 8] [8 0] 1 0
f 16.692536675 _8_ RTR  --- 18 tcp 1040 [13a 8 1 800] ------- [1:0 3:0 29 3] [8 0] 1 0
r 16.702601967 _3_ AGT  --- 16 tcp 1040 [13a 3 8 800] ------- [1:0 3:0 29 3] [6 0] 2 0
s 16.702601967 _3_ AGT  --- 19 ack 40 [0 0 0 0] ------- [3:0 1:0 32 0] [6 0] 0 0
r 16.702601967 _3_ RTR  --- 19 ack 40 [0 0 0 0] ------- [3:0 1:0 32 0] [6 0] 0 0
s 16.702601967 _3_ RTR  --- 19 ack 40 [0 0 0 0] ------- [3:0 1:0 30 8] [6 0] 0 0
r 16.704807256 _8_ RTR  --- 19 ack 40 [13a 8 3 800] ------- [3:0 1:0 30 8] [6 0] 1 0
f 16.704807256 _8_ RTR  --- 19 ack 40 [13a 8 3 800] ------- [3:0 1:0 29 1] [6 0] 1 0
r 16.714772545 _3_ AGT  --- 17 tcp 1040 [13a 3 8 800] ------- [1:0 3:0 29 3] [7 0] 2 0
s 16.714772545 _3_ AGT  --- 20 ack 40 [0 0 0 0] ------- [3:0 1:0 32 0] [7 0] 0 0
r 16.714772545 _3_ RTR  --- 20 ack 40 [0 0 0 0] ------- [3:0 1:0 32 0] [7 0] 0 0
s 16.714772545 _3_ RTR  --- 20 ack 40 [0 0 0 0] ------- [3:0 1:0 30 8] [7 0] 0 0
r 16.724598260 _3_ AGT  --- 18 tcp 1040 [13a 3 8 800] ------- [1:0 3:0 29 3] [8 0] 2 0
s 16.724598260 _3_ AGT  --- 21 ack 40 [0 0 0 0] ------- [3:0 1:0 32 0] [8 0] 0 0
r 16.724598260 _3_ RTR  --- 21 ack 40 [0 0 0 0] ------- [3:0 1:0 32 0] [8 0] 0 0
s 16.724598260 _3_ RTR  --- 21 ack 40 [0 0 0 0] ------- [3:0 1:0 30 8] [8 0] 0 0
r 16.726543544 _8_ RTR  --- 20 ack 40 [13a 8 3 800] ------- [3:0 1:0 30 8] [7 0] 1 0
f 16.726543544 _8_ RTR  --- 20 ack 40 [13a 8 3 800] ------- [3:0 1:0 29 1] [7 0] 1 0
r 16.728389716 _1_ AGT  --- 19 ack 40 [13a 1 8 800] ------- [3:0 1:0 29 1] [6 0] 2 0
s 16.728389716 _1_ AGT  --- 22 tcp 1040 [0 0 0 0] ------- [1:0 3:0 32 0] [9 0] 0 0
r 16.728389716 _1_ RTR  --- 22 tcp 1040 [0 0 0 0] ------- [1:0 3:0 32 0] [9 0] 0 0
s 16.728389716 _1_ RTR  --- 22 tcp 1040 [0 0 0 0] ------- [1:0 3:0 30 8] [9 0] 0 0
r 16.738375888 _8_ RTR  --- 22 tcp 1040 [13a 8 1 800] ------- [1:0 3:0 30 8] [9 0] 1 0
f 16.738375888 _8_ RTR  --- 22 tcp 1040 [13a 8 1 800] ------- [1:0 3:0 29 3] [9 0] 1 0
r 16.740562060 _1_ AGT  --- 20 ack 40 [13a 1 8 800] ------- [3:0 1:0 29 1] [7 0] 2 0
s 16.740562060 _1_ AGT  --- 23 tcp 1040 [0 0 0 0] ------- [1:0 3:0 32 0] [10 0] 0 0
r 16.740562060 _1_ RTR  --- 23 tcp 1040 [0 0 0 0] ------- [1:0 3:0 32 0] [10 0] 0 0
s 16.740562060 _1_ AGT  --- 24 tcp 1040 [0 0 0 0] ------- [1:0 3:0 32 0] [11 0] 0 0
r 16.740562060 _1_ RTR  --- 24 tcp 1040 [0 0 0 0] ------- [1:0 3:0 32 0] [11 0] 0 0